<preamble>

<basis_specs>
===============================================================================
Ti                   Z=  22    Mass=  47.880        Charge= 0.20322    
Lmxo=2 Lmxkb= 2    BasisType=split      Semic=T
L=0  Nsemic=1  Cnfigmx=4
          n=1  nzeta=1  polorb=0  (3s)
            splnorm:   0.15000    
               vcte:    93.565    
               rinn:    3.2722    
               qcoe:    0.0000    
               qyuk:    0.0000    
               qwid:   0.10000E-01
                rcs:    5.8063    
            lambdas:    1.0000    
          n=2  nzeta=2  polorb=0  (4s)
            splnorm:   0.15000    
               vcte:    86.503    
               rinn:    5.1707    
               qcoe:    0.0000    
               qyuk:    0.0000    
               qwid:   0.10000E-01
                rcs:    6.9167      4.4103    
            lambdas:    1.0000      1.0000    
L=1  Nsemic=1  Cnfigmx=4
          n=1  nzeta=1  polorb=0  (3p)
            splnorm:   0.15000    
               vcte:    102.65    
               rinn:    2.9840    
               qcoe:    0.0000    
               qyuk:    0.0000    
               qwid:   0.10000E-01
                rcs:    5.9533    
            lambdas:    1.0000    
          n=2  nzeta=1  polorb=0  (4p)
            splnorm:   0.15000    
               vcte:    4.6356    
               rinn:    1.4611    
               qcoe:    0.0000    
               qyuk:    0.0000    
               qwid:   0.10000E-01
                rcs:    6.1040    
            lambdas:    1.0000    
L=2  Nsemic=0  Cnfigmx=3
          n=1  nzeta=2  polorb=0  (3d)
            splnorm:   0.15000    
               vcte:    55.283    
               rinn:    5.6666    
               qcoe:    0.0000    
               qyuk:    0.0000    
               qwid:   0.10000E-01
                rcs:    6.5794      2.4203    
            lambdas:    1.0000      1.0000    
-------------------------------------------------------------------------------
L=0  Nkbl=2  erefs: 0.17977+309 0.17977+309
L=1  Nkbl=2  erefs: 0.17977+309 0.17977+309
L=2  Nkbl=1  erefs: 0.17977+309
===============================================================================
</basis_specs>

<pseudopotential_header>
 Ti ps nrl pcec
 ONCVPSP-3.2018-03-01Hamann's oncvpsp                        
 3s 2.00  r= 1.36/3p 6.00  r= 1.31/3d 2.00  r= 1.66/                   
</pseudopotential_header>
</preamble>
Ti                            # Symbol
Ti                            # Label
   22                         # Atomic number
     12.0000000000                             # Valence charge
     47.8800000000        # Mass 
     176.418261191        # Self energy 
   2   7                      # Lmax for basis, no. of nl orbitals 
   2   6                      # Lmax for projectors, no. of nl KB projectors
# PAOs:__________________________
  0  3  1  0  2.000000   #orbital l, n, z, is_polarized, population
 500    0.1163580899014869E-01     5.806268686084199     # npts, delta, cutoff
     0.000000000000000        0.9583502943280159    
    0.1163580899014869E-01    0.9587573117247522    
    0.2327161798029739E-01    0.9599849595627705    
    0.3490742697044608E-01    0.9620262074156566    
    0.4654323596059478E-01    0.9648738243055713    
    0.5817904495074348E-01    0.9685177213399779    
    0.6981485394089217E-01    0.9729449859658500    
    0.8145066293104086E-01    0.9781399259714414    
    0.9308647192118956E-01    0.9840841231149037    
    0.1047222809113383        0.9907564962738362    
    0.1163580899014870        0.9981333739897195    
    0.1279938988916356         1.006188576255728    
    0.1396297078817843         1.014893505367870    
    0.1512655168719330         1.024217245628059    
    0.1629013258620817         1.034126671653649    
    0.1745371348522304         1.044586565011238    
    0.1861729438423791         1.055559738853323    
    0.1978087528325278         1.067007170194873    
    0.2094445618226765         1.078888139423543    
    0.2210803708128252         1.091160376592269    
    0.2327161798029739         1.103780213997062    
    0.2443519887931226         1.116702744496443    
    0.2559877977832713         1.129881984982670    
    0.2676236067734200         1.143271044369592    
    0.2792594157635687         1.156822295418098    
    0.2908952247537174         1.170487549678721    
    0.3025310337438661         1.184218234792531    
    0.3141668427340147         1.197965573356915    
    0.3258026517241635         1.211680762533021    
    0.3374384607143122         1.225315153546932    
    0.3490742697044609         1.238820430218073    
    0.3607100786946095         1.252148785636294    
    0.3723458876847582         1.265253096103958    
    0.3839816966749069         1.278087091461779    
    0.3956175056650556         1.290605520927214    
    0.4072533146552043         1.302764313591908    
    0.4188891236453530         1.314520732750466    
    0.4305249326355017         1.325833523265762    
    0.4421607416256504         1.336663051216743    
    0.4537965506157991         1.346971435121958    
    0.4654323596059478         1.356722668086031    
    0.4770681685960965         1.365882730276107    
    0.4887039775862452         1.374419691200434    
    0.5003397865763939         1.382303801331167    
    0.5119755955665426         1.389507572687361    
    0.5236114045566913         1.396005848071585    
    0.5352472135468400         1.401775858733683    
    0.5468830225369886         1.406797270317294    
    0.5585188315271373         1.411052217028128    
    0.5701546405172860         1.414525324046581    
    0.5817904495074347         1.417203718290423    
    0.5934262584975835         1.419077027714828    
    0.6050620674877322         1.420137369415933    
    0.6166978764778809         1.420379326879714    
    0.6283336854680295         1.419799916788913    
    0.6399694944581782         1.418398545866437    
    0.6516053034483269         1.416176958293308    
    0.6632411124384756         1.413139174291950    
    0.6748769214286243         1.409291420511333    
    0.6865127304187730         1.404642052888188    
    0.6981485394089217         1.399201472688540    
    0.7097843483990703         1.392982036455726    
    0.7214201573892191         1.385997960604694    
    0.7330559663793678         1.378265221408389    
    0.7446917753695165         1.369801451143521    
    0.7563275843596652         1.360625830922156    
    0.7679633933498139         1.350758980921825    
    0.7795992023399626         1.340222861969176    
    0.7912350113301112         1.329040663171442    
    0.8028708203202599         1.317236613096427    
    0.8145066293104086         1.304835977225097    
    0.8261424383005573         1.291864894754299    
    0.8377782472907060         1.278350274541408    
    0.8494140562808548         1.264319685671299    
    0.8610498652710035         1.249801250830583    
    0.8726856742611521         1.234823542109662    
    0.8843214832513008         1.219415479585009    
    0.8959572922414495         1.203606232947181    
    0.9075931012315982         1.187425126393991    
    0.9192289102217469         1.170901546964721    
    0.9308647192118956         1.154064856450151    
    0.9425005282020443         1.136944306975703    
    0.9541363371921929         1.119568960320923    
    0.9657721461823416         1.101967611008495    
    0.9774079551724904         1.084168713169993    
    0.9890437641626391         1.066200311173804    
     1.000679573152788         1.048089973983066    
     1.012315382142936         1.029864733198170    
     1.023951191133085         1.011551024728739    
     1.035587000123234        0.9931746340344481    
     1.047222809113383        0.9747606448717702    
     1.058858618103531        0.9563333914845811    
     1.070494427093680        0.9379164141801226    
     1.082130236083829        0.9195324182375875    
     1.093766045073977        0.9012032361042998    
     1.105401854064126        0.8829497928432174    
     1.117037663054275        0.8647920748051547    
     1.128673472044423        0.8467491015091677    
     1.140309281034572        0.8288389007243951    
     1.151945090024721        0.8110784867556448    
     1.163580899014869        0.7934838419432475    
     1.175216708005018        0.7760699013943528    
     1.186852516995167        0.7588505409681494    
     1.198488325985316        0.7418385685397914    
     1.210124134975464        0.7250457185693208    
     1.221759943965613        0.7084826499988851    
     1.233395752955762        0.6921589475005991    
     1.245031561945910        0.6760831260866984    
     1.256667370936059        0.6602626390907362    
     1.268303179926208        0.6447038894810703    
     1.279938988916356        0.6294122445897729    
     1.291574797906505        0.6143920541161699    
     1.303210606896654        0.5996466714956680    
     1.314846415886803        0.5851784775508758    
     1.326482224876951        0.5709889094138142    
     1.338118033867100        0.5570784892875846    
     1.349753842857249        0.5434468635821394    
     1.361389651847397        0.5300928174044860    
     1.373025460837546        0.5170144116314830    
     1.384661269827695        0.5042092663506261    
     1.396297078817843        0.4916747502002511    
     1.407932887807992        0.4794080748721495    
     1.419568696798141        0.4674062448988985    
     1.431204505788289        0.4556661053755666    
     1.442840314778438        0.4441843576535394    
     1.454476123768587        0.4329575747528021    
     1.466111932758736        0.4219822175444387    
     1.477747741748884        0.4112546492414505    
     1.489383550739033        0.4007711489838368    
     1.501019359729182        0.3905279243971538    
     1.512655168719330        0.3805211232414401    
     1.524290977709479        0.3707468442021424    
     1.535926786699628        0.3612011468711600    
     1.547562595689776        0.3518800609709677    
     1.559198404679925        0.3427795948726980    
     1.570834213670074        0.3338957434508571    
     1.582470022660222        0.3252244953102014    
     1.594105831650371        0.3167618394426210    
     1.605741640640520        0.3085037713605212    
     1.617377449630669        0.3004462986636630    
     1.629013258620817        0.2925854461626692    
     1.640649067610966        0.2849172605504941    
     1.652284876601115        0.2774378146951302    
     1.663920685591263        0.2701432116199671    
     1.675556494581412        0.2630295879972917    
     1.687192303571561        0.2560931172758404    
     1.698828112561710        0.2493300125069975    
     1.710463921551858        0.2427365288895343    
     1.722099730542007        0.2363089661641706    
     1.733735539532156        0.2300436706843536    
     1.745371348522304        0.2239370372101509    
     1.757007157512453        0.2179855105028772    
     1.768642966502602        0.2121855866831228    
     1.780278775492750        0.2065338144218194    
     1.791914584482899        0.2010267959742685    
     1.803550393473048        0.1956611880249261    
     1.815186202463196        0.1904337023785093    
     1.826822011453345        0.1853411065165411    
     1.838457820443494        0.1803802240207178    
     1.850093629433643        0.1755479348731937    
     1.861729438423791        0.1708411756452425    
     1.873365247413940        0.1662569395824211    
     1.885001056404089        0.1617922765941944    
     1.896636865394237        0.1574442931562419    
     1.908272674384386        0.1532101521323811    
     1.919908483374535        0.1490870725231283    
     1.931544292364683        0.1450723291475125    
     1.943180101354832        0.1411632522638687    
     1.954815910344981        0.1373572271357659    
     1.966451719335129        0.1336516935479970    
     1.978087528325278        0.1300441452781120    
     1.989723337315427        0.1265321295277740    
     2.001359146305576        0.1231132463187937    
     2.012994955295724        0.1197851478575396    
     2.024630764285873        0.1165455378720000    
     2.036266573276022        0.1133921709246461    
     2.047902382266170        0.1103228517048477    
     2.059538191256319        0.1073354343034215    
     2.071174000246468        0.1044278214727121    
     2.082809809236617        0.1015979638743487    
     2.094445618226765        0.9884385931691329E-01
     2.106081427216914        0.9616355198630668E-01
     2.117717236207063        0.9355513166994894E-01
     2.129353045197211        0.9101673297849985E-01
     2.140988854187360        0.8854653456375627E-01
     2.152624663177508        0.8614275833411722E-01
     2.164260472167657        0.8380366867274877E-01
     2.175896281157806        0.8152757165604485E-01
     2.187532090147954        0.7931281427573224E-01
     2.199167899138103        0.7715778366213195E-01
     2.210803708128252        0.7506090631773760E-01
     2.222439517118401        0.7302064734933064E-01
     2.234075326108549        0.7103550969481090E-01
     2.245711135098698        0.6910403336831444E-01
     2.257346944088847        0.6722479471144982E-01
     2.268982753078995        0.6539640564969847E-01
     2.280618562069144        0.6361751295288864E-01
     2.292254371059293        0.6188679751408740E-01
     2.303890180049442        0.6020297362703986E-01
     2.315525989039590        0.5856478825512437E-01
     2.327161798029739        0.5697102032675904E-01
     2.338797607019888        0.5542048003063357E-01
     2.350433416010036        0.5391200812837030E-01
     2.362069225000185        0.5244447526591779E-01
     2.373705033990334        0.5101678130242903E-01
     2.385340842980483        0.4962785464150268E-01
     2.396976651970631        0.4827665157504844E-01
     2.408612460960780        0.4696215562899304E-01
     2.420248269950929        0.4568337692464330E-01
     2.431884078941077        0.4443935155086197E-01
     2.443519887931226        0.4322914094254569E-01
     2.455155696921375        0.4205183127103852E-01
     2.466791505911524        0.4090653284285962E-01
     2.478427314901672        0.3979237951019086E-01
     2.490063123891820        0.3870852809132257E-01
     2.501698932881969        0.3765415780154569E-01
     2.513334741872118        0.3662846969474436E-01
     2.524970550862267        0.3563068611560622E-01
     2.536606359852415        0.3466005016264276E-01
     2.548242168842564        0.3371582516195545E-01
     2.559877977832713        0.3279729415186175E-01
     2.571513786822861        0.3190375937827982E-01
     2.583149595813010        0.3103454180089332E-01
     2.594785404803159        0.3018898061016411E-01
     2.606421213793308        0.2936643275487134E-01
     2.618057022783456        0.2856627248047220E-01
     2.629692831773605        0.2778789087787294E-01
     2.641328640763754        0.2703069544261182E-01
     2.652964449753902        0.2629410964454013E-01
     2.664600258744051        0.2557757250754770E-01
     2.676236067734200        0.2488053819934890E-01
     2.687871876724349        0.2420247563136501E-01
     2.699507685714497        0.2354286806820564E-01
     2.711143494704646        0.2290121274677263E-01
     2.722779303694795        0.2227702050496852E-01
     2.734415112684943        0.2166981541951584E-01
     2.746050921675092        0.2107913445290046E-01
     2.757686730665241        0.2050452710937477E-01
     2.769322539655390        0.1994555509956055E-01
     2.780958348645538        0.1940179201364242E-01
     2.792594157635687        0.1887282300305325E-01
     2.804229966625836        0.1835824447024002E-01
     2.815865775615984        0.1785766376647363E-01
     2.827501584606133        0.1737069889758085E-01
     2.839137393596281        0.1689697823724114E-01
     2.850773202586430        0.1643614024778428E-01
     2.862409011576579        0.1598783320835263E-01
     2.874044820566727        0.1555171495012465E-01
     2.885680629556876        0.1512745259851236E-01
     2.897316438547025        0.1471472232218636E-01
     2.908952247537174        0.1431320908867786E-01
     2.920588056527322        0.1392260642644969E-01
     2.932223865517471        0.1354261619328570E-01
     2.943859674507620        0.1317294835079396E-01
     2.955495483497768        0.1281332074490256E-01
     2.967131292487917        0.1246345889219285E-01
     2.978767101478066        0.1212309577190871E-01
     2.990402910468215        0.1179197162351062E-01
     3.002038719458363        0.1146983374961806E-01
     3.013674528448512        0.1115643632421432E-01
     3.025310337438661        0.1085154020597807E-01
     3.036946146428809        0.1055491275658606E-01
     3.048581955418958        0.1026632766389087E-01
     3.060217764409107        0.9985564769822760E-02
     3.071853573399256        0.9712409902911133E-02
     3.083489382389404        0.9446654715269407E-02
     3.095125191379553        0.9188096523974315E-02
     3.106761000369702        0.8936538156702584E-02
     3.118396809359850        0.8691787801480933E-02
     3.130032618349999        0.8453658860500278E-02
     3.141668427340148        0.8221969807860873E-02
     3.153304236330296        0.7996544051106563E-02
     3.164940045320445        0.7777209796517568E-02
     3.176575854310594        0.7563799918010276E-02
     3.188211663300742        0.7356151829583461E-02
     3.199847472290891        0.7154107361160641E-02
     3.211483281281040        0.6957512637812817E-02
     3.223119090271188        0.6766217962236095E-02
     3.234754899261337        0.6580077700355975E-02
     3.246390708251486        0.6398950170057823E-02
     3.258026517241635        0.6222697532897488E-02
     3.269662326231783        0.6051185688742878E-02
     3.281298135221932        0.5884284173238657E-02
     3.292933944212081        0.5721866058113091E-02
     3.304569753202229        0.5563807853846194E-02
     3.316205562192378        0.5409989415656567E-02
     3.327841371182527        0.5260293851338447E-02
     3.339477180172675        0.5114607432281790E-02
     3.351112989162824        0.4972819504382812E-02
     3.362748798152973        0.4834822407112732E-02
     3.374384607143122        0.4700511389640287E-02
     3.386020416133270        0.4569784526350203E-02
     3.397656225123419        0.4442542646276079E-02
     3.409292034113568        0.4318689252791620E-02
     3.420927843103716        0.4198130448734260E-02
     3.432563652093865        0.4080774873911308E-02
     3.444199461084014        0.3966533620474162E-02
     3.455835270074163        0.3855320176365593E-02
     3.467471079064311        0.3747050356905139E-02
     3.479106888054460        0.3641642262574161E-02
     3.490742697044608        0.3539016191888920E-02
     3.502378506034757        0.3439094612289748E-02
     3.514014315024906        0.3341802103122128E-02
     3.525650124015054        0.3247065322194207E-02
     3.537285933005203        0.3154812962684893E-02
     3.548921741995352        0.3064975725406472E-02
     3.560557550985501        0.2977486262264582E-02
     3.572193359975649        0.2892279189310386E-02
     3.583829168965798        0.2809291035400118E-02
     3.595464977955947        0.2728460224819471E-02
     3.607100786946095        0.2649727038271554E-02
     3.618736595936244        0.2573033610257932E-02
     3.630372404926393        0.2498323888338624E-02
     3.642008213916542        0.2425543607473062E-02
     3.653644022906690        0.2354640263720219E-02
     3.665279831896839        0.2285563076146955E-02
     3.676915640886988        0.2218262956484445E-02
     3.688551449877136        0.2152692469574041E-02
     3.700187258867285        0.2088805804900320E-02
     3.711823067857434        0.2026558717683153E-02
     3.723458876847582        0.1965908497303420E-02
     3.735094685837731        0.1906813918009934E-02
     3.746730494827880        0.1849235201379003E-02
     3.758366303818029        0.1793133953252369E-02
     3.770002112808177        0.1738473124846110E-02
     3.781637921798326        0.1685216959987823E-02
     3.793273730788475        0.1633330949946282E-02
     3.804909539778623        0.1582781775055846E-02
     3.816545348768772        0.1533537259873195E-02
     3.828181157758920        0.1485566321917647E-02
     3.839816966749069        0.1438838923609924E-02
     3.851452775739218        0.1393326021707101E-02
     3.863088584729367        0.1348999520970267E-02
     3.874724393719515        0.1305832227563189E-02
     3.886360202709664        0.1263797802706638E-02
     3.897996011699813        0.1222870720413992E-02
     3.909631820689961        0.1183026223920850E-02
     3.921267629680110        0.1144240285405511E-02
     3.932903438670259        0.1106489564568933E-02
     3.944539247660408        0.1069751374173517E-02
     3.956175056650556        0.1034003642040124E-02
     3.967810865640705        0.9992248776807657E-03
     3.979446674630854        0.9653941375090061E-03
     3.991082483621002        0.9324909973580575E-03
     4.002718292611151        0.9004955213508737E-03
     4.014354101601300        0.8693882348707018E-03
     4.025989910591449        0.8391500991398342E-03
     4.037625719581597        0.8097624853449497E-03
     4.049261528571746        0.7812071550106857E-03
     4.060897337561895        0.7534662370696875E-03
     4.072533146552043        0.7265222091210911E-03
     4.084168955542192        0.7003578779066507E-03
     4.095804764532341        0.6749563649843388E-03
     4.107440573522489        0.6503010899208360E-03
     4.119076382512638        0.6263757568003623E-03
     4.130712191502787        0.6031643403251488E-03
     4.142348000492936        0.5806510757165957E-03
     4.153983809483084        0.5588204471667961E-03
     4.165619618473233        0.5376571784708341E-03
     4.177255427463382        0.5171462245648452E-03
     4.188891236453530        0.4972727632123916E-03
     4.200527045443679        0.4780221891956462E-03
     4.212162854433828        0.4593801076210348E-03
     4.223798663423977        0.4413323288495988E-03
     4.235434472414125        0.4238648635461653E-03
     4.247070281404274        0.4069639192122209E-03
     4.258706090394423        0.3906158964753407E-03
     4.270341899384571        0.3748073862856571E-03
     4.281977708374720        0.3595251675465321E-03
     4.293613517364869        0.3447562050822739E-03
     4.305249326355017        0.3304876482147627E-03
     4.316885135345165        0.3167068294754330E-03
     4.328520944335314        0.3034012637090105E-03
     4.340156753325463        0.2905586475615957E-03
     4.351792562315612        0.2781668589493104E-03
     4.363428371305760        0.2662139569793201E-03
     4.375064180295909        0.2546881819346510E-03
     4.386699989286058        0.2435779553675505E-03
     4.398335798276206        0.2328718806072322E-03
     4.409971607266355        0.2225587427430052E-03
     4.421607416256504        0.2126275092795703E-03
     4.433243225246652        0.2030673305552665E-03
     4.444879034236801        0.1938675401627204E-03
     4.456514843226950        0.1850176557739823E-03
     4.468150652217099        0.1765073791090916E-03
     4.479786461207247        0.1683265967270490E-03
     4.491422270197396        0.1604653803686630E-03
     4.503058079187545        0.1529139872398534E-03
     4.514693888177693        0.1456628606747133E-03
     4.526329697167842        0.1387026297622725E-03
     4.537965506157991        0.1320241098712215E-03
     4.549601315148140        0.1256183026030335E-03
     4.561237124138288        0.1194763956549072E-03
     4.572872933128437        0.1135897630315280E-03
     4.584508742118586        0.1079499641579396E-03
     4.596144551108734        0.1025487439040897E-03
     4.607780360098883        0.9737803189168444E-04
     4.619416169089032        0.9242994227790717E-04
     4.631051978079181        0.8769677241737496E-04
     4.642687787069329        0.8317100236400612E-04
     4.654323596059478        0.7884529381490800E-04
     4.665959405049627        0.7471248892367552E-04
     4.677595214039775        0.7076560946286215E-04
     4.689231023029924        0.6699785492993557E-04
     4.700866832020073        0.6340260144281844E-04
     4.712502641010222        0.5997340011026385E-04
     4.724138450000370        0.5670397528897240E-04
     4.735774258990519        0.5358822314895452E-04
     4.747410067980668        0.5062020930979245E-04
     4.759045876970816        0.4779416717344251E-04
     4.770681685960965        0.4510449580124904E-04
     4.782317494951114        0.4254575776802525E-04
     4.793953303941263        0.4011267687439736E-04
     4.805589112931411        0.3780013609970470E-04
     4.817224921921560        0.3560317479431281E-04
     4.828860730911709        0.3351698650855262E-04
     4.840496539901857        0.3153691641005998E-04
     4.852132348892006        0.2965845866080602E-04
     4.863768157882155        0.2787725399796320E-04
     4.875403966872303        0.2618908671966884E-04
     4.887039775862452        0.2458988217999235E-04
     4.898675584852601        0.2307570397531680E-04
     4.910311393842750        0.2164275111229616E-04
     4.921947202832898        0.2028735533274401E-04
     4.933583011823047        0.1900597802629143E-04
     4.945218820813196        0.1779520750858824E-04
     4.956854629803344        0.1665175609889947E-04
     4.968490438793492        0.1557245719979969E-04
     4.980126247783641        0.1455426247973323E-04
     4.991762056773790        0.1359423882915306E-04
     5.003397865763938        0.1268956553552381E-04
     5.015033674754087        0.1183753136095994E-04
     5.026669483744236        0.1103553164721547E-04
     5.038305292734385        0.1028106542588749E-04
     5.049941101724533        0.9571732581437994E-05
     5.061576910714682        0.8905230953815478E-05
     5.073212719704831        0.8279353543525054E-05
     5.084848528694979        0.7691985701839454E-05
     5.096484337685128        0.7141102358553675E-05
     5.108120146675277        0.6624765266659132E-05
     5.119755955665426        0.6141120306430511E-05
     5.131391764655574        0.5688394797548364E-05
     5.143027573645723        0.5264894860758687E-05
     5.154663382635872        0.4869002815903151E-05
     5.166299191626020        0.4499174625149602E-05
     5.177935000616169        0.4153937353091760E-05
     5.189570809606318        0.3831886724104985E-05
     5.201206618596466        0.3531684669793958E-05
     5.212842427586615        0.3252056949566063E-05
     5.224478236576764        0.2991790799802463E-05
     5.236114045566913        0.2749732700489279E-05
     5.247749854557061        0.2524786048813553E-05
     5.259385663547210        0.2315909021766538E-05
     5.271021472537359        0.2122112422046510E-05
     5.282657281527507        0.1942457586410349E-05
     5.294293090517656        0.1776054237653461E-05
     5.305928899507805        0.1622058954312485E-05
     5.317564708497954        0.1479672507980104E-05
     5.329200517488102        0.1348138442112581E-05
     5.340836326478251        0.1226741120198676E-05
     5.352472135468400        0.1114803933490808E-05
     5.364107944458548        0.1011687014978424E-05
     5.375743753448697        0.9167879344045918E-06
     5.387379562438846        0.8295362216943582E-06
     5.399015371428995        0.7493943108612387E-06
     5.410651180419143        0.6758553699250807E-06
     5.422286989409292        0.6085147468917993E-06
     5.433922798399441        0.5467642771322688E-06
     5.445558607389589        0.4902482733978669E-06
     5.457194416379738        0.4385743753964863E-06
     5.468830225369887        0.3913766784263751E-06
     5.480466034360036        0.3483128484684449E-06
     5.492101843350184        0.3085795233571736E-06
     5.503737652340333        0.2729315395840204E-06
     5.515373461330482        0.2406070797498837E-06
     5.527009270320630        0.2112805425249957E-06
     5.538645079310779        0.1846154844422015E-06
     5.550280888300928        0.1602725075498186E-06
     5.561916697291077        0.1383635156577825E-06
     5.573552506281225        0.1176013476877299E-06
     5.585188315271374        0.9816098121360422E-07
     5.596824124261523        0.7987544057911084E-07
     5.608459933251671        0.6267088214573031E-07
     5.620095742241820        0.4657429851262582E-07
     5.631731551231968        0.3082975694366431E-07
     5.643367360222117        0.1758411332839116E-07
     5.655003169212265        0.6337628545129375E-08
     5.666638978202414       -0.2591338379003946E-08
     5.678274787192563       -0.8908922673342713E-08
     5.689910596182711       -0.1238728308584864E-07
     5.701546405172860       -0.1087374356094899E-07
     5.713182214163009       -0.8663376751547289E-08
     5.724818023153158       -0.4441533141709923E-08
     5.736453832143306        0.1198462313764339E-08
     5.748089641133455        0.7438310501891974E-08
     5.759725450123604        0.1320897083083021E-07
     5.771361259113752        0.1086775544079113E-07
     5.782997068103901        0.1085488741694147E-07
     5.794632877094050        0.7591492697929529E-08
     5.806268686084199         0.000000000000000    
  0  4  1  0  2.000000   #orbital l, n, z, is_polarized, population
 500    0.1386115661873683E-01     6.916717152749680     # npts, delta, cutoff
     0.000000000000000        0.4287502190296411    
    0.1386115661873683E-01    0.4289479851236400    
    0.2772231323747367E-01    0.4295433415439502    
    0.4158346985621050E-01    0.4305304730085093    
    0.5544462647494734E-01    0.4319017219011146    