<preamble>

<basis_specs>
===============================================================================
Ca                   Z=  20    Mass=  40.080        Charge=-0.17090E-01
Lmxo=2 Lmxkb= 2    BasisType=split      Semic=T
L=0  Nsemic=1  Cnfigmx=4
          n=1  nzeta=1  polorb=0  (3s)
            splnorm:   0.15000    
               vcte:    62.189    
               rinn:    4.8192    
               qcoe:    0.0000    
               qyuk:    0.0000    
               qwid:   0.10000E-01
                rcs:    5.4972    
            lambdas:    1.0000    
          n=2  nzeta=2  polorb=0  (4s)
            splnorm:   0.15000    
               vcte:    181.85    
               rinn:    5.4983    
               qcoe:    0.0000    
               qyuk:    0.0000    
               qwid:   0.10000E-01
                rcs:    6.7144      5.2291    
            lambdas:    1.0000      1.0000    
L=1  Nsemic=1  Cnfigmx=4
          n=1  nzeta=1  polorb=0  (3p)
            splnorm:   0.15000    
               vcte:    43.485    
               rinn:    4.2885    
               qcoe:    0.0000    
               qyuk:    0.0000    
               qwid:   0.10000E-01
                rcs:    7.0586    
            lambdas:    1.0000    
          n=2  nzeta=1  polorb=0  (4p)
            splnorm:   0.15000    
               vcte:    136.69    
               rinn:    4.9908    
               qcoe:    0.0000    
               qyuk:    0.0000    
               qwid:   0.10000E-01
                rcs:    7.4205    
            lambdas:    1.0000    
L=2  Nsemic=0  Cnfigmx=3
          n=1  nzeta=1  polorb=0  (3d)
            splnorm:   0.15000    
               vcte:    82.574    
               rinn:    5.7791    
               qcoe:    0.0000    
               qyuk:    0.0000    
               qwid:   0.10000E-01
                rcs:    6.3869    
            lambdas:    1.0000    
-------------------------------------------------------------------------------
L=0  Nkbl=2  erefs: 0.17977+309 0.17977+309
L=1  Nkbl=2  erefs: 0.17977+309 0.17977+309
L=2  Nkbl=1  erefs: 0.17977+309
===============================================================================
</basis_specs>

<pseudopotential_header>
 Ca ps nrl pcec
 ONCVPSP-3.2018-03-01Hamann's oncvpsp                        
 3s 2.00  r= 1.46/3p 6.00  r= 1.46/3d 0.00  r= 1.85/                   
</pseudopotential_header>
</preamble>
Ca                            # Symbol
Ca                            # Label
   20                         # Atomic number
     10.0000000000                             # Valence charge
     40.0800000000        # Mass 
     121.307650921        # Self energy 
   2   6                      # Lmax for basis, no. of nl orbitals 
   2   6                      # Lmax for projectors, no. of nl KB projectors
# PAOs:__________________________
  0  3  1  0  2.000000   #orbital l, n, z, is_polarized, population
 500    0.1101650237474418E-01     5.497234684997348     # npts, delta, cutoff
     0.000000000000000        0.5383751348417599    
    0.1101650237474418E-01    0.5387306914306277    
    0.2203300474948837E-01    0.5398006280380202    
    0.3304950712423255E-01    0.5415809354681732    
    0.4406600949897674E-01    0.5440672415538861    
    0.5508251187372092E-01    0.5472534421959274    
    0.6609901424846511E-01    0.5511317181566191    
    0.7711551662320928E-01    0.5556925566168399    
    0.8813201899795348E-01    0.5609247774179059    
    0.9914852137269767E-01    0.5668155639191929    
    0.1101650237474418        0.5733504983921325    
    0.1211815261221860        0.5805136018591013    
    0.1321980284969302        0.5882873782731559    
    0.1432145308716744        0.5966528629218485    
    0.1542310332464186        0.6055896749254904    
    0.1652475356211628        0.6150760736873107    
    0.1762640379959070        0.6250890191399908    
    0.1872805403706511        0.6356042356200843    
    0.1982970427453953        0.6465962791889623    
    0.2093135451201395        0.6580386082061302    
    0.2203300474948837        0.6699036569482214    
    0.2313465498696279        0.6821629120546515    
    0.2423630522443720        0.6947869915690015    
    0.2533795546191163        0.7077457263337097    
    0.2643960569938604        0.7210082434847030    
    0.2754125593686046        0.7345430517823066    
    0.2864290617433488        0.7483181285052157    
    0.2974455641180930        0.7623010076255943    
    0.3084620664928371        0.7764588689756197    
    0.3194785688675814        0.7907586281090249    
    0.3304950712423255        0.8051670265556797    
    0.3415115736170697        0.8196507221628173    
    0.3525280759918139        0.8341763792135558    
    0.3635445783665581        0.8487107580116593    
    0.3745610807413023        0.8632208036213525    
    0.3855775831160465        0.8776737334522934    
    0.3965940854907907        0.8920371233827330    
    0.4076105878655348        0.9062789921184113    
    0.4186270902402790        0.9203678834907784    
    0.4296435926150232        0.9342729464059880    
    0.4406600949897674        0.9479640121653202    
    0.4516765973645115        0.9614116688887965    
    0.4626930997392558        0.9745873327861018    
    0.4737096021139999        0.9874633160330458    
    0.4847261044887441         1.000012891027164    
    0.4957426068634883         1.012210350812842    
    0.5067591092382325         1.024031065484393    
    0.5177756116129767         1.035451534394645    
    0.5287921139877209         1.046449434016821    
    0.5398086163624650         1.057003661328437    
    0.5508251187372092         1.067094372607813    
    0.5618416211119535         1.076703017556025    
    0.5728581234866976         1.085812368679961    
    0.5838746258614418         1.094406545894914    
    0.5948911282361860         1.102471036328412    
    0.6059076306109301         1.109992709329585    
    0.6169241329856743         1.116959826711246    
    0.6279406353604186         1.123362048273778    
    0.6389571377351627         1.129190432681646    
    0.6499736401099069         1.134437433784143    
    0.6609901424846510         1.139096892491841    
    0.6720066448593952         1.143164024339386    
    0.6830231472341395         1.146635402883045    
    0.6940396496088836         1.149508939098320    
    0.7050561519836278         1.151783856958309    
    0.7160726543583720         1.153460665387809    
    0.7270891567331161         1.154541126800782    
    0.7381056591078604         1.155028222440083    
    0.7491221614826046         1.154926114747866    
    0.7601386638573487         1.154240107003091    
    0.7711551662320929         1.152976600468534    
    0.7821716686068371         1.151143049294220    
    0.7931881709815813         1.148747913426578    
    0.8042046733563255         1.145800609773475    
    0.8152211757310697         1.142311461874261    
    0.8262376781058138         1.138291648321407    
    0.8372541804805580         1.133753150176164    
    0.8482706828553022         1.128708697615123    
    0.8592871852300464         1.123171716039522    
    0.8703036876047906         1.117156271842613    
    0.8813201899795348         1.110677018251676    
    0.8923366923542789         1.103749140435865    
    0.9033531947290231         1.096388304308430    
    0.9143696971037674         1.088610598690027    
    0.9253861994785115         1.080432484000018    
    0.9364027018532557         1.071870742447870    
    0.9474192042279999         1.062942425130946    
    0.9584357066027440         1.053664802569462    
    0.9694522089774882         1.044055315776914    
    0.9804687113522325         1.034131528832871    
    0.9914852137269766         1.023911082824534    
     1.002501716101721         1.013411651280093    
     1.013518218476465         1.002650897163659    
     1.024534720851209        0.9916464314929664    
     1.035551223225953        0.9804157736303886    
     1.046567725600698        0.9689763132878912    
     1.057584227975442        0.9573452742769458    
     1.068600730350186        0.9455396800258222    
     1.079617232724930        0.9335763208785662    
     1.090633735099674        0.9214717231826354    
     1.101650237474418        0.9092421201655544    
     1.112666739849163        0.8969034245950298    
     1.123683242223907        0.8844712032117076    
     1.134699744598651        0.8719606529194214    
     1.145716246973395        0.8593865787137133    
     1.156732749348139        0.8467633733261657    
     1.167749251722884        0.8341049985596113    
     1.178765754097628        0.8214249682868591    
     1.189782256472372        0.8087363330840938    
     1.200798758847116        0.7960516664687062    
     1.211815261221860        0.7833830527105209    
     1.222831763596604        0.7707420761846906    
     1.233848265971349        0.7581398122342654    
     1.244864768346093        0.7455868195101549    
     1.255881270720837        0.7330931337562557    
     1.266897773095581        0.7206682630075820    
     1.277914275470325        0.7083211841693117    
     1.288930777845070        0.6960603409446724    
     1.299947280219814        0.6838936430797909    
     1.310963782594558        0.6718284668934549    
     1.321980284969302        0.6598716570596248    
     1.332996787344046        0.6480295296104404    
     1.344013289718790        0.6363078761271114    
     1.355029792093535        0.6247119690843222    
     1.366046294468279        0.6132465683158949    
     1.377062796843023        0.6019159285678005    
     1.388079299217767        0.5907238080955188    
     1.399095801592511        0.5796734783916677    
     1.410112303967256        0.5687677341557265    
     1.421128806342000        0.5580089063033825    
     1.432145308716744        0.5473988724761111    
     1.443161811091488        0.5369390720176613    
     1.454178313466232        0.5266305210953460    
     1.465194815840976        0.5164738133213967    
     1.476211318215721        0.5064692255419786    
     1.487227820590465        0.4966167971219733    
     1.498244322965209        0.4869164126629820    
     1.509260825339953        0.4773678310404171    
     1.520277327714697        0.4679706566747707    
     1.531293830089442        0.4587243686437689    
     1.542310332464186        0.4496283268279897    
     1.553326834838930        0.4406817804259971    
     1.564343337213674        0.4318838761918545    
     1.575359839588418        0.4232336662061011    
     1.586376341963163        0.4147301151853351    
     1.597392844337907        0.4063721074221531    
     1.608409346712651        0.3981584533375931    
     1.619425849087395        0.3900878956648814    
     1.630442351462139        0.3821591152631109    
     1.641458853836884        0.3743707366093055    
     1.652475356211628        0.3667213329814177    
     1.663491858586372        0.3592094313362653    
     1.674508360961116        0.3518335169031903    
     1.685524863335860        0.3445920375104872    
     1.696541365710604        0.3374834076569334    
     1.707557868085349        0.3305060123411319    
     1.718574370460093        0.3236582106622550    
     1.729590872834837        0.3169383392039438    
     1.740607375209581        0.3103447152131011    
     1.751623877584325        0.3038756395842110    
     1.762640379959070        0.2975293996598519    
     1.773656882333814        0.2913042718571844    
     1.784673384708558        0.2851985241296581    
     1.795689887083302        0.2792104182731057    
     1.806706389458046        0.2733382120843832    
     1.817722891832790        0.2675801613806567    
     1.828739394207535        0.2619345218870354    
     1.839755896582279        0.2563995509994156    
     1.850772398957023        0.2509735094297263    
     1.861788901331767        0.2456546627395456    
     1.872805403706511        0.2404412827686427    
     1.883821906081256        0.2353316489636806    
     1.894838408456000        0.2303240496130394    
     1.905854910830744        0.2254167829923272    
     1.916871413205488        0.2206081584260136    
     1.927887915580232        0.2158964972691380    
     1.938904417954976        0.2112801338140453    
     1.949920920329721        0.2067574161255858    
     1.960937422704465        0.2023267068092677    
     1.971953925079209        0.1979863837153651    
     1.982970427453953        0.1937348405829957    
     1.993986929828697        0.1895704876269589    
     2.005003432203442        0.1854917520705489    
     2.016019934578186        0.1814970786274429    
     2.027036436952930        0.1775849299348947    
     2.038052939327674        0.1737537869414428    
     2.049069441702418        0.1700021492509055    
     2.060085944077163        0.1663285354256135    
     2.071102446451907        0.1627314832505445    
     2.082118948826651        0.1592095499606600    
     2.093135451201395        0.1557613124335564    
     2.104151953576139        0.1523853673488318    
     2.115168455950883        0.1490803313165461    
     2.126184958325628        0.1458448409757966    
     2.137201460700372        0.1426775530656513    
     2.148217963075116        0.1395771444694545    
     2.159234465449860        0.1365423122341603    
     2.170250967824604        0.1335717735662952    
     2.181267470199348        0.1306642658053912    
     2.192283972574093        0.1278185463767119    
     2.203300474948837        0.1250333927241346    
     2.214316977323581        0.1223076022243478    
     2.225333479698325        0.1196399920841349    
     2.236349982073070        0.1170293992217994    
     2.247366484447814        0.1144746801308383    
     2.258382986822558        0.1119747107329577    
     2.269399489197302        0.1095283862139348    
     2.280415991572046        0.1071346208553656    
     2.291432493946790        0.1047923478543086    
     2.302448996321535        0.1025005191124391    
     2.313465498696279        0.1002581050409902    
     2.324482001071023        0.9806409434018171E-01
     2.335498503445767        0.9591749380227468E-01
     2.346515005820511        0.9381732807961662E-01
     2.357531508195255        0.9176263945282523E-01
     2.368548010570000        0.8975248759301233E-01
     2.379564512944744        0.8778594933635535E-01
     2.390581015319488        0.8586211841365628E-01
     2.401597517694232        0.8398010522565966E-01
     2.412614020068976        0.8213903658108883E-01
     2.423630522443720        0.8033805550067535E-01
     2.434647024818465        0.7857632095428538E-01
     2.445663527193209        0.7685300763443510E-01
     2.456680029567953        0.7516730569542275E-01
     2.467696531942697        0.7351842053461301E-01
     2.478713034317442        0.7190557254540970E-01
     2.489729536692186        0.7032799689511086E-01
     2.500746039066930        0.6878494328786358E-01
     2.511762541441674        0.6727567576838066E-01
     2.522779043816418        0.6579947249547960E-01
     2.533795546191163        0.6435562554050066E-01
     2.544812048565907        0.6294344066806545E-01
     2.555828550940651        0.6156223714067043E-01
     2.566845053315395        0.6021134751716502E-01
     2.577861555690139        0.5889011746253473E-01
     2.588878058064883        0.5759790555570706E-01
     2.599894560439628        0.5633408310215513E-01
     2.610911062814372        0.5509803395229996E-01
     2.621927565189116        0.5388915431914228E-01
     2.632944067563860        0.5270685259907362E-01
     2.643960569938604        0.5155054919549863E-01
     2.654977072313348        0.5041967634247232E-01
     2.665993574688093        0.4931367792927749E-01
     2.677010077062837        0.4823200932727391E-01
     2.688026579437581        0.4717413721514065E-01
     2.699043081812325        0.4613953940482984E-01
     2.710059584187070        0.4512770466758420E-01
     2.721076086561814        0.4413813255903877E-01
     2.732092588936558        0.4317033324430863E-01
     2.743109091311302        0.4222382732173492E-01
     2.754125593686046        0.4129814564666774E-01
     2.765142096060790        0.4039282915504643E-01
     2.776158598435535        0.3950742868483701E-01
     2.787175100810279        0.3864150479868934E-01
     2.798191603185023        0.3779462760651946E-01
     2.809208105559767        0.3696637658601212E-01
     2.820224607934511        0.3615634040527081E-01
     2.831241110309255        0.3536411674578879E-01
     2.842257612684000        0.3458931212418726E-01
     2.853274115058744        0.3383154171655763E-01
     2.864290617433488        0.3309042918368004E-01
     2.875307119808232        0.3236560649632815E-01
     2.886323622182976        0.3165671376327082E-01
     2.897340124557720        0.3096339906045805E-01
     2.908356626932465        0.3028531826238672E-01
     2.919373129307209        0.2962213487500392E-01
     2.930389631681953        0.2897351987141651E-01
     2.941406134056697        0.2833915152965598E-01
     2.952422636431442        0.2771871527310567E-01
     2.963439138806186        0.2711190351346874E-01
     2.974455641180930        0.2651841549621032E-01
     2.985472143555674        0.2593795714935470E-01
     2.996488645930418        0.2537024093455550E-01
     3.007505148305162        0.2481498570132492E-01
     3.018521650679907        0.2427191654381208E-01
     3.029538153054651        0.2374076466126995E-01
     3.040554655429395        0.2322126722070143E-01
     3.051571157804139        0.2271316722242267E-01
     3.062587660178883        0.2221621336932411E-01
     3.073604162553627        0.2173015993817321E-01
     3.084620664928372        0.2125476665418844E-01
     3.095637167303116        0.2078979856810026E-01
     3.106653669677860        0.2033502593666140E-01
     3.117670172052604        0.1989022410521826E-01
     3.128686674427348        0.1945517339305594E-01
     3.139703176802092        0.1902965898190266E-01
     3.150719679176837        0.1861347080644520E-01
     3.161736181551581        0.1820640344765969E-01
     3.172752683926325        0.1780825602842186E-01
     3.183769186301070        0.1741883211190984E-01
     3.194785688675814        0.1703793960200138E-01
     3.205802191050558        0.1666539064605673E-01
     3.216818693425302        0.1630100154016749E-01
     3.227835195800046        0.1594459263637159E-01
     3.238851698174790        0.1559598825212727E-01
     3.249868200549535        0.1525501658181154E-01
     3.260884702924279        0.1492150961037797E-01
     3.271901205299023        0.1459530302888580E-01
     3.282917707673767        0.1427623615202720E-01
     3.293934210048511        0.1396415183752526E-01
     3.304950712423255        0.1365889640740416E-01
     3.315967214797999        0.1336031957102595E-01
     3.326983717172744        0.1306827434990743E-01
     3.338000219547488        0.1278261700421789E-01
     3.349016721922232        0.1250320696096903E-01
     3.360033224296976        0.1222990674381484E-01
     3.371049726671720        0.1196258190446693E-01
     3.382066229046464        0.1170110095559674E-01
     3.393082731421209        0.1144533530530617E-01
     3.404099233795953        0.1119515919303789E-01
     3.415115736170697        0.1095044962696127E-01
     3.426132238545442        0.1071108632268579E-01
     3.437148740920186        0.1047695164341909E-01
     3.448165243294930        0.1024793054142010E-01
     3.459181745669674        0.1002391050079812E-01
     3.470198248044418        0.9804781481507641E-02
     3.481214750419162        0.9590435864667896E-02
     3.492231252793907        0.9380768399053571E-02
     3.503247755168651        0.9175676148812982E-02
     3.514264257543395        0.8975058442270136E-02
     3.525280759918139        0.8778816821938172E-02
     3.536297262292883        0.8586854995596600E-02
     3.547313764667627        0.8399078788488289E-02
     3.558330267042372        0.8215396096502998E-02
     3.569346769417116        0.8035716840467153E-02
     3.580363271791860        0.7859952921402869E-02
     3.591379774166604        0.7688018176809453E-02
     3.602396276541348        0.7519828337844444E-02
     3.613412778916092        0.7355300987515009E-02
     3.624429281290837        0.7194355519754094E-02
     3.635445783665581        0.7036913099430902E-02
     3.646462286040325        0.6882896623182762E-02
     3.657478788415069        0.6732230681169801E-02
     3.668495290789814        0.6584841519638189E-02
     3.679511793164558        0.6440657004338113E-02
     3.690528295539302        0.6299606584691747E-02
     3.701544797914046        0.6161621258804650E-02
     3.712561300288790        0.6026633539216688E-02
     3.723577802663534        0.5894577419435053E-02
     3.734594305038279        0.5765388341152675E-02
     3.745610807413023        0.5639003162237360E-02
     3.756627309787767        0.5515360125397722E-02
     3.767643812162511        0.5394398827564984E-02
     3.778660314537255        0.5276060189901513E-02
     3.789676816911999        0.5160286428513206E-02
     3.800693319286744        0.5047021025786012E-02
     3.811709821661488        0.4936208702352426E-02
     3.822726324036232        0.4827795389695123E-02
     3.833742826410976        0.4721728203306748E-02
     3.844759328785720        0.4617955416487597E-02
     3.855775831160464        0.4516426434691179E-02
     3.866792333535209        0.4417091770465090E-02
     3.877808835909953        0.4319903018885333E-02
     3.888825338284697        0.4224812833587875E-02
     3.899841840659442        0.4131774903314245E-02
     3.910858343034186        0.4040743928903248E-02
     3.921874845408930        0.3951675600939124E-02
     3.932891347783674        0.3864526577745849E-02
     3.943907850158418        0.3779254463929181E-02
     3.954924352533162        0.3695817789325252E-02
     3.965940854907906        0.3614175988702163E-02
     3.976957357282651        0.3534289381281934E-02
     3.987973859657395        0.3456119151347757E-02
     3.998990362032139        0.3379627329053417E-02
     4.010006864406884        0.3304776771304966E-02
     4.021023366781628        0.3231531143895493E-02
     4.032039869156372        0.3159854903231114E-02
     4.043056371531116        0.3089713278820899E-02
     4.054072873905860        0.3021072256021703E-02
     4.065089376280604        0.2953898559500338E-02
     4.076105878655349        0.2888159636332016E-02
     4.087122381030093        0.2823823640197586E-02
     4.098138883404837        0.2760859415601318E-02
     4.109155385779581        0.2699236482391751E-02
     4.120171888154325        0.2638925020838285E-02
     4.131188390529069        0.2579895856830679E-02
     4.142204892903814        0.2522120447494294E-02
     4.153221395278558        0.2465570867097752E-02
     4.164237897653302        0.2410219793302364E-02
     4.175254400028046        0.2356040493642912E-02
     4.186270902402790        0.2303006812371492E-02
     4.197287404777534        0.2251093157557286E-02
     4.208303907152279        0.2200274488469434E-02
     4.219320409527023        0.2150526303258053E-02
     4.230336911901767        0.2101824626855763E-02
     4.241353414276511        0.2054145999191100E-02
     4.252369916651255        0.2007467463635742E-02
     4.263386419025999        0.1961766555703983E-02
     4.274402921400744        0.1917021292017382E-02
     4.285419423775488        0.1873210159467918E-02
     4.296435926150232        0.1830312104658787E-02
     4.307452428524976        0.1788306523553980E-02
     4.318468930899720        0.1747173251352868E-02
     4.329485433274464        0.1706892552603093E-02
     4.340501935649208        0.1667445111486735E-02
     4.351518438023953        0.1628812022358808E-02
     4.362534940398697        0.1590974780465533E-02
     4.373551442773441        0.1553915272888097E-02
     4.384567945148185        0.1517615769639627E-02
     4.395584447522929        0.1482058914994263E-02
     4.406600949897673        0.1447227718984650E-02
     4.417617452272418        0.1413105549081424E-02
     4.428633954647162        0.1379676122072716E-02
     4.439650457021906        0.1346923496075219E-02
     4.450666959396650        0.1314832062757210E-02
     4.461683461771394        0.1283386539709377E-02
     4.472699964146139        0.1252571962977865E-02
     4.483716466520884        0.1222373679778012E-02
     4.494732968895628        0.1192777341320674E-02
     4.505749471270372        0.1163768895831824E-02
     4.516765973645116        0.1135334581701878E-02
     4.527782476019860        0.1107460920783583E-02
     4.538798978394604        0.1080134711828155E-02
     4.549815480769348        0.1053343024079927E-02
     4.560831983144093        0.1027073190963608E-02
     4.571848485518837        0.1001312803947857E-02
     4.582864987893581        0.9760497065164367E-03
     4.593881490268325        0.9512719882659464E-03
     4.604897992643069        0.9269679791476722E-03
     4.615914495017813        0.9031262437859559E-03
     4.626930997392558        0.8797355759588237E-03
     4.637947499767302        0.8567849931718727E-03
     4.648964002142046        0.8342637345619314E-03
     4.659980504516790        0.8121612418126554E-03
     4.670997006891534        0.7904671756153020E-03
     4.682013509266278        0.7691713968688064E-03
     4.693030011641023        0.7482639648666430E-03
     4.704046514015767        0.7277352143709801E-03
     4.715063016390511        0.7075754054285435E-03
     4.726079518765255        0.6877752402406030E-03
     4.737096021139999        0.6683255334852036E-03
     4.748112523514743        0.6492172788211559E-03
     4.759129025889488        0.6304416417310463E-03
     4.770145528264232        0.6119902042439887E-03
     4.781162030638976        0.5938538402285216E-03
     4.792178533013720        0.5760244893942554E-03
     4.803195035388464        0.5584939737033884E-03
     4.814211537763208        0.5412542635971992E-03
     4.825228040137953        0.5242956036048162E-03
     4.836244542512697        0.5076144453801226E-03
     4.847261044887441        0.4912012632997288E-03
     4.858277547262185        0.4750483146239886E-03
     4.869294049636929        0.4591479223587689E-03
     4.880310552011673        0.4434925686575550E-03
     4.891327054386418        0.4280765127000697E-03
     4.902343556761162        0.4128893490576532E-03
     4.913360059135906        0.3979267319983666E-03
     4.924376561510650        0.3831835720233663E-03
     4.935393063885394        0.3686558735166060E-03
     4.946409566260139        0.3543434875638924E-03
     4.957426068634883        0.3402392991860992E-03
     4.968442571009628        0.3263460193879028E-03
     4.979459073384372        0.3126657013156227E-03
     4.990475575759116        0.2992021594600027E-03
     5.001492078133860        0.2859609069033766E-03
     5.012508580508604        0.2729453275851517E-03
     5.023525082883348        0.2601725036817191E-03
     5.034541585258093        0.2476479233070648E-03
     5.045558087632837        0.2353815468605764E-03
     5.056574590007581        0.2233837079327388E-03
     5.067591092382325        0.2116648618860481E-03
     5.078607594757069        0.2002354290340155E-03
     5.089624097131813        0.1891052005292018E-03
     5.100640599506558        0.1782837239337236E-03
     5.111657101881302        0.1677797270085730E-03
     5.122673604256046        0.1576010538805488E-03
     5.133690106630790        0.1477552889196795E-03
     5.144706609005534        0.1382464991178934E-03
     5.155723111380278        0.1290798960926234E-03
     5.166739613755023        0.1202588025256884E-03
     5.177756116129767        0.1117852937100871E-03
     5.188772618504511        0.1036601773620755E-03
     5.199789120879255        0.9589845409173339E-04
     5.210805623253999        0.8846432754328735E-04
     5.221822125628743        0.8136991378810493E-04
     5.232838628003488        0.7461240943563978E-04
     5.243855130378232        0.6818840199817026E-04
     5.254871632752976        0.6209359427214976E-04
     5.265888135127720        0.5630585743740255E-04
     5.276904637502464        0.5085476345125408E-04
     5.287921139877208        0.4571454814264822E-04
     5.298937642251953        0.4087207975919076E-04
     5.309954144626697        0.3631097147390440E-04
     5.320970647001441        0.3201182403158744E-04
     5.331987149376185        0.2799194485183804E-04
     5.343003651750929        0.2414317303168159E-04
     5.354020154125673        0.2047796590524615E-04
     5.365036656500418        0.1697714046381895E-04
     5.376053158875162        0.1362807022045980E-04
     5.387069661249906        0.1042754937193111E-04
     5.398086163624650        0.7268569588930045E-05
     5.409102665999395        0.4419044087286626E-05
     5.420119168374139        0.1833589831848759E-05
     5.431135670748883       -0.4165766615433047E-06
     5.442152173123628       -0.2239278868840555E-05
     5.453168675498372       -0.3519416395106134E-05
     5.464185177873116       -0.3637054721850205E-05
     5.475201680247860       -0.3346665071105231E-05
     5.486218182622604       -0.2177981515903079E-05
     5.497234684997348         0.000000000000000    
  0  4  1  0  2.000000   #orbital l, n, z, is_polarized, population
 500    0.1345564137602794E-01     6.714365046637943     # npts, delta, cutoff
     0.000000000000000        0.2353380915612625    
    0.1345564137602794E-01    0.2355471606411980    
    0.2691128275205588E-01    0.2361751706494584    
    0.4036692412808383E-01    0.2372184976632289    
    0.5382256550411177E-01    0.2386721266705210    
    0.6727820688013972E-01    0.2405290756101855    