<?xml version="1.0" encoding="UTF-8" ?>
<psml version="1.1" energy_unit="hartree" length_unit="bohr"
 uuid="3fe16a80-1d65-11e8-75e6-335877f7152c"
 xmlns="http://esl.cecam.org/PSML/ns/1.1">
<provenance creator="ONCVPSP-3.3.0+psml-3.3.0-73 (scalar-relativistic)"
 date="2018-03-01">
<annotation action="semilocal-pseudopotential-generation"
 action-cont="projectors-generation" />
<input-file name="oncvpsp-input">
<![CDATA[# atsym z nc nv iexc psfile
Ca 20 3 3 -116133 upf
# n l f
1 0 2.0
2 0 2.0
2 1 6.0
3 0 2.0
3 1 6.0
4 0 2.0
# lmax
2
# l rc ep ncon nbas qcut
0 1.45 0.0 4 8 8.2
1 1.45 0.0 4 8 8.4
2 1.85 0.0 4 8 8.0
# lloc lpopt rc5 dvloc0
4 5 1.3 0.0
# l nproj debl
0 2 2.0
1 2 2.0
2 2 2.0
# icmod fcfact
3 6 1.28
# epsh1 epsh2 depsh
-12.0 12.0 0.02
# rlmax drl
4.0 0.01
 0
]]>
</input-file>
</provenance>
<pseudo-atom-spec atomic-label="Ca" atomic-number="20" z-pseudo="10"
 flavor="Hamann&apos;s oncvpsp" relativity="scalar" spin-dft="no"
 core-corrections="yes">
<annotation pseudo-energy="-36.7860521016" />
<exchange-correlation>
<annotation oncvpsp-xc-code="-116133" oncvpsp-xc-type="libxc-interface" />
<libxc-info number-of-functionals="2">
<functional name="Perdew, Burke &amp; Ernzerhof SOL (GGA)" type="exchange"
 id="116" />
<functional name="Perdew, Burke &amp; Ernzerhof SOL (GGA)" type="correlation"
 id="133" />
</libxc-info>
</exchange-correlation>
<valence-configuration total-valence-charge="10">
<shell n="3" l="s" occupation="2" />
<shell n="3" l="p" occupation="6" />
<shell n="4" l="s" occupation="2" />
</valence-configuration>
</pseudo-atom-spec>
<grid npts="457">
<annotation type="sampled from oncvpsp log grid"
 recipe="r(i:1..N) = r1*exp(a*(i-1)) + r=0; resampled"
 recipe-cont="r1: scale; a: step" scale="0.250000000000E-04"
 step="0.119285708653E-01" delta="0.500000000000E-02" rmax="44.2219702658" />
<grid-data>
  0.000000000000E+00  5.049729012381E-03  1.008643741373E-02  1.513126450836E-02
  2.014686717874E-02  2.527186313341E-02  3.058619555721E-02  3.571676558720E-02
  4.072468755361E-02  4.588417062408E-02  5.108430610452E-02  5.619938960492E-02
  6.182664761078E-02  6.721083426378E-02  7.306390394756E-02  7.848487098793E-02
  8.430804598688E-02  8.948939793739E-02  9.498918222399E-02  1.008269688650E-01
  1.070235306009E-01  1.122538703661E-01  1.177398217141E-01  1.234938766215E-01
  1.295291375591E-01  1.358593473281E-01  1.424989203530E-01  1.476906872574E-01
  1.530716095851E-01  1.586485789732E-01  1.644287381471E-01  1.704194900681E-01
  1.766285074152E-01  1.830637424114E-01  1.897334370091E-01  1.966461334456E-01
  2.038106851838E-01  2.112362682513E-01  2.163363567119E-01  2.215595817084E-01
  2.269089162491E-01  2.323874051231E-01  2.379981666323E-01  2.437443943675E-01
  2.496293590251E-01  2.556564102694E-01  2.618289786390E-01  2.681505774992E-01
  2.746248050424E-01  2.812553463353E-01  2.880459754172E-01  2.950005574477E-01
  3.021230509067E-01  3.094175098478E-01  3.168880862056E-01  3.245390321589E-01
  3.323747025514E-01  3.403995573698E-01  3.486181642829E-01  3.570352012414E-01
  3.656554591401E-01  3.744838445456E-01  3.835253824883E-01  3.927852193231E-01
  4.022686256585E-01  4.119809993564E-01  4.219278686048E-01  4.269910030281E-01
  4.321148950644E-01  4.373002738052E-01  4.425478770908E-01  4.478584516159E-01
  4.532327530353E-01  4.586715460717E-01  4.641756046246E-01  4.697457118801E-01
  4.753826604227E-01  4.810872523477E-01  4.868602993759E-01  4.927026229684E-01
  4.986150544440E-01  5.045984350974E-01  5.106536163185E-01  5.167814597144E-01
  5.229828372309E-01  5.292586312777E-01  5.356097348530E-01  5.420370516713E-01
  5.485414962913E-01  5.551239942468E-01  5.617854821778E-01  5.685269079639E-01
  5.753492308595E-01  5.822534216298E-01  5.892404626894E-01  5.963113482416E-01
  6.034670844205E-01  6.107086894336E-01  6.180371937068E-01  6.254536400313E-01
  6.329590837116E-01  6.405545927162E-01  6.482412478288E-01  6.560201428027E-01
  6.638923845163E-01  6.718590931305E-01  6.799214022481E-01  6.880804590751E-01
  6.963374245840E-01  7.046934736790E-01  7.131497953631E-01  7.217075929075E-01
  7.303680840224E-01  7.391325010307E-01  7.480020910430E-01  7.569781161355E-01
  7.660618535292E-01  7.752545957715E-01  7.845576509208E-01  7.939723427318E-01
  8.035000108446E-01  8.131420109747E-01  8.228997151064E-01  8.327745116877E-01
  8.427678058280E-01  8.528810194979E-01  8.631155917319E-01  8.734729788327E-01
  8.839546545787E-01  8.945621104336E-01  9.052968557588E-01  9.161604180279E-01
  9.271543430442E-01  9.382801951608E-01  9.495395575027E-01  9.609340321927E-01
  9.724652405790E-01  9.841348234660E-01  9.959444413476E-01  1.007895774644E+00
  1.019990523939E+00  1.032230410227E+00  1.044617175149E+00  1.057152581251E+00
  1.069838412226E+00  1.082676473173E+00  1.095668590851E+00  1.108816613941E+00
  1.122122413309E+00  1.135587882268E+00  1.149214936856E+00  1.163005516098E+00
  1.176961582291E+00  1.191085121278E+00  1.205378142734E+00  1.219842680447E+00
  1.234480792612E+00  1.249294562123E+00  1.264286096869E+00  1.279457530031E+00
  1.294811020392E+00  1.310348752636E+00  1.326072937668E+00  1.341985812920E+00
  1.358089642675E+00  1.374386718387E+00  1.390879359008E+00  1.407569911316E+00
  1.424460750252E+00  1.441554279255E+00  1.458852930606E+00  1.476359165773E+00
  1.494075475762E+00  1.512004381471E+00  1.530148434049E+00  1.548510215258E+00
  1.567092337841E+00  1.585897445895E+00  1.604928215246E+00  1.624187353828E+00
  1.643677602074E+00  1.663401733299E+00  1.683362554099E+00  1.703562904748E+00
  1.724005659605E+00  1.744693727520E+00  1.765630052251E+00  1.786817612878E+00
  1.808259424232E+00  1.829958537323E+00  1.851918039771E+00  1.874141056248E+00
  1.896630748923E+00  1.919390317910E+00  1.942423001725E+00  1.965732077746E+00
  1.989320862679E+00  2.013192713031E+00  2.037351025587E+00  2.061799237894E+00
  2.086540828749E+00  2.111579318694E+00  2.136918270518E+00  2.162561289764E+00
  2.188512025242E+00  2.214774169545E+00  2.241351459579E+00  2.268247677094E+00
  2.295466649219E+00  2.323012249010E+00  2.350888395998E+00  2.379099056750E+00
  2.407648245431E+00  2.436540024376E+00  2.465778504669E+00  2.495367846725E+00
  2.525312260885E+00  2.555616008016E+00  2.586283400112E+00  2.617318800913E+00
  2.648726626524E+00  2.680511346043E+00  2.712677482195E+00  2.745229611982E+00
  2.778172367325E+00  2.811510435733E+00  2.845248560962E+00  2.879391543694E+00
  2.913944242218E+00  2.948911573124E+00  2.984298512002E+00  3.020110094146E+00
  3.056351415276E+00  3.093027632259E+00  3.130143963846E+00  3.167705691412E+00
  3.205718159709E+00  3.244186777626E+00  3.283117018957E+00  3.322514423185E+00
  3.362384596263E+00  3.402733211418E+00  3.443566009955E+00  3.484888802075E+00
  3.526707467700E+00  3.569027957312E+00  3.611856292800E+00  3.655198568313E+00
  3.699060951133E+00  3.743449682547E+00  3.788371078737E+00  3.833831531682E+00
  3.879837510062E+00  3.926395560183E+00  3.973512306905E+00  4.021194454588E+00
  4.069448788043E+00  4.118282173500E+00  4.167701559582E+00  4.217713978297E+00
  4.268326546036E+00  4.319546464589E+00  4.371381022164E+00  4.423837594430E+00
  4.476923645563E+00  4.530646729309E+00  4.585014490061E+00  4.640034663942E+00
  4.695715079909E+00  4.752063660868E+00  4.809088424799E+00  4.866797485896E+00
  4.925199055727E+00  4.984301444396E+00  5.044113061728E+00  5.104642418469E+00
  5.165898127491E+00  5.227888905021E+00  5.290623571881E+00  5.354111054743E+00
  5.418360387400E+00  5.483380712049E+00  5.549181280594E+00  5.615771455961E+00
  5.683160713432E+00  5.751358641994E+00  5.820374945698E+00  5.890219445046E+00
  5.960902078386E+00  6.032432903327E+00  6.104822098167E+00  6.178079963345E+00
  6.252216922905E+00  6.327243525980E+00  6.403170448292E+00  6.480008493671E+00
  6.557768595595E+00  6.636461818742E+00  6.716099360567E+00  6.796692552894E+00
  6.878252863529E+00  6.960791897891E+00  7.044321400666E+00  7.128853257474E+00
  7.214399496564E+00  7.300972290522E+00  7.388583958009E+00  7.477246965505E+00
  7.566973929091E+00  7.657777616240E+00  7.749670947635E+00  7.842666999006E+00
  7.936779002994E+00  8.032020351030E+00  8.128404595243E+00  8.225945450386E+00
  8.324656795790E+00  8.424552677340E+00  8.525647309468E+00  8.627955077181E+00
  8.731490538108E+00  8.836268424565E+00  8.942303645660E+00  9.049611289408E+00
  9.158206624881E+00  9.268105104379E+00  9.379322365632E+00  9.491874234019E+00
  9.605776724827E+00  9.721046045525E+00  9.837698598072E+00  9.955750981249E+00
  1.007521999302E+01  1.019612263294E+01  1.031847610454E+01  1.044229781779E+01
  1.056760539160E+01  1.069441665630E+01  1.082274965618E+01  1.095262265205E+01
  1.108405412388E+01  1.121706277336E+01  1.135166752664E+01  1.148788753696E+01
  1.162574218741E+01  1.176525109366E+01  1.190643410678E+01  1.204931131606E+01
  1.219390305185E+01  1.234022988848E+01  1.248831264714E+01  1.263817239890E+01
  1.278983046769E+01  1.294330843330E+01  1.309862813450E+01  1.325581167212E+01
  1.341488141218E+01  1.357585998913E+01  1.373877030900E+01  1.390363555271E+01
  1.407047917934E+01  1.423932492949E+01  1.441019682864E+01  1.458311919059E+01
  1.475811662087E+01  1.493521402032E+01  1.511443658857E+01  1.529580982763E+01
  1.547935954556E+01  1.566511186011E+01  1.585309320243E+01  1.604333032086E+01
  1.623585028471E+01  1.643068048813E+01  1.662784865398E+01  1.682738283783E+01
  1.702931143189E+01  1.723366316907E+01  1.744046712710E+01  1.764975273262E+01
  1.786154976541E+01  1.807588836260E+01  1.829279902295E+01  1.851231261123E+01
  1.873446036256E+01  1.895927388691E+01  1.918678517355E+01  1.941702659564E+01
  1.965003091478E+01  1.988583128576E+01  2.012446126119E+01  2.036595479633E+01
  2.061034625388E+01  2.085767040893E+01  2.110796245384E+01  2.136125800328E+01
  2.161759309932E+01  2.187700421651E+01  2.213952826711E+01  2.240520260632E+01
  2.267406503759E+01  2.294615381804E+01  2.322150766386E+01  2.350016575583E+01
  2.378216774490E+01  2.406755375783E+01  2.435636440293E+01  2.464864077576E+01
  2.494442446507E+01  2.524375755865E+01  2.554668264936E+01  2.585324284115E+01
  2.616348175524E+01  2.647744353631E+01  2.679517285874E+01  2.711671493305E+01
  2.744211551224E+01  2.777142089839E+01  2.810467794917E+01  2.844193408456E+01
  2.878323729358E+01  2.912863614110E+01  2.947817977479E+01  2.983191793209E+01
  3.018990094727E+01  3.055217975864E+01  3.091880591575E+01  3.128983158673E+01
  3.166530956578E+01  3.204529328056E+01  3.242983679993E+01  3.281899484153E+01
  3.321282277963E+01  3.361137665298E+01  3.401471317282E+01  3.442288973089E+01
  3.483596440767E+01  3.525399598056E+01  3.567704393232E+01  3.610516845951E+01
  3.653843048103E+01  3.697689164680E+01  3.742061434656E+01  3.786966171872E+01
  3.832409765934E+01  3.878398683126E+01  3.924939467323E+01  3.972038740931E+01
  4.019703205822E+01  4.067939644292E+01  4.116754920023E+01  4.166155979064E+01
  4.216149850812E+01  4.266743649022E+01  4.317944572810E+01  4.369759907684E+01
  4.422197026576E+01
</grid-data>
</grid>
<valence-charge total-charge="10" is-unscreening-charge="yes"
 rescaled-to-z-pseudo="no">
<radfunc>
<data npts="457">
  6.317790529387E-01  6.327985583468E-01  6.358461540584E-01  6.409304360608E-01
  6.479990115073E-01  6.572928765324E-01  6.691368651777E-01  6.826979845337E-01
  6.979443814575E-01  7.157218968520E-01  7.357573411153E-01  7.575310179444E-01
  7.838408512807E-01  8.113129432403E-01  8.437124653797E-01  8.760605611291E-01
  9.132982535712E-01  9.485834998671E-01  9.882364785996E-01  1.032782907189E+00
  1.082807667305E+00  1.127206049378E+00  1.175889623536E+00  1.229253763916E+00
  1.287726362062E+00  1.351769603369E+00  1.421881613808E+00  1.478768952809E+00
  1.539610504109E+00  1.604658750650E+00  1.674178654135E+00  1.748447631670E+00
  1.827755388967E+00  1.912403579045E+00  2.002705250411E+00  2.098984043071E+00
  2.201573084364E+00  2.310813529639E+00  2.387507041422E+00  2.467414965226E+00
  2.550641640345E+00  2.637291364741E+00  2.727467907205E+00  2.821273952851E+00
  2.918810475512E+00  3.020176030248E+00  3.125465958722E+00  3.234771499865E+00
  3.348178797867E+00  3.465767799251E+00  3.587611030542E+00  3.713772247895E+00
  3.844304950030E+00  3.979250745900E+00  4.118637568861E+00  4.262477729604E+00
  4.410765800905E+00  4.563476328413E+00  4.720561363159E+00  4.881947813505E+00
  5.047534616745E+00  5.217189733725E+00  5.390746973703E+00  5.568002661332E+00
  5.748712163215E+00  5.932586297994E+00  6.119287661594E+00  6.213579014375E+00
  6.308426907950E+00  6.403773948688E+00  6.499559035508E+00  6.595717248595E+00
  6.692179740921E+00  6.788873633296E+00  6.885721913697E+00  6.982643341706E+00
  7.079552358938E+00  7.176359006388E+00  7.272968849708E+00  7.369282913480E+00
  7.465197625587E+00  7.560604772888E+00  7.655391469416E+00  7.749440138408E+00
  7.842628509501E+00  7.934829632495E+00  8.025911909120E+00  8.115739144269E+00
  8.204170618219E+00  8.291061181332E+00  8.376261372798E+00  8.459617564926E+00
  8.540972134519E+00  8.620163662795E+00  8.697027165333E+00  8.771394353386E+00
  8.843093927896E+00  8.911951907390E+00  8.977791990842E+00  9.040435956439E+00
  9.099704096995E+00  9.155415692605E+00  9.207389520861E+00  9.255444404743E+00
  9.299399797997E+00  9.339076407528E+00  9.374296851991E+00  9.404886355429E+00
  9.430673474405E+00  9.451490856700E+00  9.467176029201E+00  9.477572212195E+00
  9.482529156812E+00  9.481904001911E+00  9.475562146235E+00  9.463378131210E+00
  9.445236529282E+00  9.421032832282E+00  9.390674333853E+00  9.354080999598E+00
  9.311186318257E+00  9.261938126885E+00  9.206299402756E+00  9.144249014511E+00
  9.075782424923E+00  9.000912337584E+00  8.919669279817E+00  8.832102114241E+00
  8.738278471543E+00  8.638285097321E+00  8.532228106184E+00  8.420233136769E+00
  8.302445401830E+00  8.179029628210E+00  8.050169882165E+00  7.916069276308E+00
  7.776949555246E+00  7.633050557891E+00  7.484629555373E+00  7.331960464421E+00
  7.175332937136E+00  7.015051329052E+00  6.851433548468E+00  6.684809791034E+00
  6.515521164643E+00  6.343918210699E+00  6.170359328872E+00  5.995209113461E+00
  5.818836610519E+00  5.641613505877E+00  5.463912255244E+00  5.286104168540E+00
  5.108557461654E+00  4.931635289788E+00  4.755693777589E+00  4.581080062203E+00
  4.408130366338E+00  4.237168119297E+00  4.068502144695E+00  3.902424934240E+00
  3.739211027354E+00  3.579115516697E+00  3.422372699514E+00  3.269194894401E+00
  3.119771442390E+00  2.974267910084E+00  2.832825510726E+00  2.695560756693E+00
  2.562565354324E+00  2.433906348708E+00  2.309626522531E+00  2.189745674336E+00
  2.074264699688E+00  1.963171293131E+00  1.856441343754E+00  1.754039065726E+00
  1.655918089316E+00  1.562022202002E+00  1.472286142563E+00  1.386636381745E+00
  1.304991891875E+00  1.227264902301E+00  1.153361637988E+00  1.083183038746E+00
  1.016625456896E+00  9.535813314112E-01  8.939398368383E-01  8.375875055270E-01
  7.844088219268E-01  7.342867879229E-01  6.871034583801E-01  6.427404462528E-01
  6.010793967922E-01  5.620024305451E-01  5.253925549922E-01  4.911340448159E-01
  4.591127909205E-01  4.292166184578E-01  4.013355742269E-01  3.753621839314E-01
  3.511916798817E-01  3.287221998260E-01  3.078549576846E-01  2.884943870387E-01
  2.705482582979E-01  2.539277705326E-01  2.385476190163E-01  2.243260395847E-01
  2.111848309854E-01  1.990493564848E-01  1.878485261193E-01  1.775147611436E-01
  1.679839424423E-01  1.591953449279E-01  1.510915602217E-01  1.436184101670E-01
  1.367248538843E-01  1.303628910754E-01  1.244874640483E-01  1.190563604374E-01
  1.140301178613E-01  1.093719308958E-01  1.050475598930E-01  1.010252405204E-01
  9.727559256048E-02  9.377152654785E-02  9.048814718187E-02  8.740265302319E-02
  8.449423260537E-02  8.174395763864E-02  7.913467436574E-02  7.665089431960E-02
  7.427868574914E-02  7.200556686719E-02  6.982040188468E-02  6.771330057716E-02
  6.567552191456E-02  6.369938209572E-02  6.177816717374E-02  5.990605033832E-02
  5.807801383347E-02  5.628977542845E-02  5.453771931966E-02  5.281883131678E-02
  5.113063815345E-02  4.947115075644E-02  4.783881130670E-02  4.623244392732E-02
  4.465120883750E-02  4.309455981602E-02  4.156220482257E-02  4.005406963044E-02
  3.857026432830E-02  3.711105255355E-02  3.567682332304E-02  3.426806533098E-02
  3.288534358647E-02  3.152927826602E-02  3.020052565860E-02  2.889976108279E-02
  2.762766365759E-02  2.638490280970E-02  2.517212640219E-02  2.398995037047E-02
  2.283894975405E-02  2.171965101420E-02  2.063252553092E-02  1.957798417599E-02
  1.855637286389E-02  1.756796898787E-02  1.661297865612E-02  1.569153465160E-02
  1.480369504863E-02  1.394944243110E-02  1.312868366794E-02  1.234125021355E-02
  1.158689891113E-02  1.086531327756E-02  1.017610531306E-02  9.518817726516E-03
  8.892926686166E-03  8.297845031733E-03  7.732925946669E-03  7.197467068456E-03
  6.690715003798E-03  6.211870203805E-03  5.760092143086E-03  5.334504736925E-03
  4.934201923299E-03  4.558253331762E-03  4.205709959673E-03  3.875609777595E-03
  3.566983189847E-03  3.278858282674E-03  3.010265800782E-03  2.760243802479E-03
  2.527841953865E-03  2.312125432840E-03  2.112178423811E-03  1.927107193440E-03
  1.756042746405E-03  1.598143067720E-03  1.452594964649E-03  1.318615526553E-03
  1.195453225221E-03  1.082388681356E-03  9.787351250270E-04  8.838385791819E-04
  7.970777958028E-04  7.178639741246E-04  6.456402896320E-04  5.798812613935E-04
  5.200919837872E-04  4.658072469100E-04  4.165905680147E-04  3.720331542627E-04
  3.317528149728E-04  2.953928394438E-04  2.626208543775E-04  2.331276729622E-04
  2.066261458378E-04  1.828500224599E-04  1.615528298417E-04  1.425067742845E-04
  1.255016705075E-04  1.103439015647E-04  9.685541207079E-05  8.487273654552E-05
  7.424606410774E-05  6.483834029188E-05  5.652440639961E-05  4.919017652312E-05
  4.273185216538E-05  3.705517422093E-05  3.207471195595E-05  2.771318852639E-05
  2.390084248923E-05  2.057482468764E-05  1.767862982159E-05  1.516156194816E-05
  1.297823308874E-05  1.108809405434E-05  9.454996534302E-06  8.046785430479E-06
  6.834920358575E-06  5.794125183366E-06  4.902064405434E-06  4.139045175778E-06
  3.487743681895E-06  2.932954625350E-06  2.461362497010E-06  2.061333351938E-06
  1.722725791336E-06  1.436719873487E-06  1.195662698661E-06  9.929294437072E-07
  8.227986597268E-07  6.803406896645E-07  5.613181110963E-07  4.620971617655E-07
  3.795691606404E-07  3.110809944814E-07  2.543737982610E-07  2.075290164877E-07
  1.689210908424E-07  1.371760769408E-07  1.111355489484E-07  8.982520478062E-08
  7.242763635014E-08  5.825877852282E-08  4.674759690358E-08  3.741861816997E-08
  2.987694733005E-08  2.379545397989E-08  1.890384440492E-08  1.497936825826E-08
  1.183893765964E-08  9.332462996967E-09  7.337233614950E-09  5.753193086630E-09
  4.498978036931E-09  3.508606682544E-09  2.728718528359E-09  2.116280176328E-09
  1.636684112501E-09  1.262177791476E-09  9.705694767665E-10  7.441652552888E-10
  5.688985500677E-10  4.336194244120E-10  3.295161109872E-10  2.496456091800E-10
  1.885539637076E-10  1.419700477777E-10  1.065593982327E-10  7.972695324944E-11
  5.945948329943E-11  4.420013448475E-11  3.274886518064E-11  2.418369163898E-11
  1.779860026978E-11  1.305476357600E-11  9.542338948103E-12  6.950656878243E-12
  5.045036582615E-12  3.648818662543E-12  2.629489978602E-12  1.888006912145E-12
  1.350609358733E-12  9.625672684097E-13  6.834210939648E-13  4.833727526340E-13
  3.405592945883E-13  2.390012247525E-13  1.670644736393E-13  1.163119113828E-13
  8.064912067853E-14  5.569156559386E-14  3.829766407736E-14  2.622567444907E-14
  1.788260362891E-14  1.214122335215E-14  8.207282709865E-15  5.523558273894E-15
  3.700821705423E-15  2.468390411473E-15  1.638862462911E-15  1.083079532470E-15
  7.124317969633E-16  4.664090528058E-16  3.038832111821E-16  1.970323456566E-16
  1.271259332672E-16  8.161519069395E-17  5.213413417071E-17  3.313305162819E-17
  2.094895110212E-17  1.317643270094E-17  8.244056359622E-18  5.130551893307E-18
  3.175699510457E-18  1.954963814048E-18  1.196832915517E-18  7.286096817837E-19
  4.410560082554E-19  2.654607780921E-19  1.588491374990E-19  9.449676240243E-20
  5.588122018220E-20  3.284737241211E-20  1.919065039102E-20  1.114297280656E-20
  6.429877618867E-21  0.000000000000E+00  0.000000000000E+00  0.000000000000E+00
  0.000000000000E+00
</data>
</radfunc>
</valence-charge>
<pseudocore-charge matching-radius="0.625453640031"
 number-of-continuous-derivatives="4">
<annotation model-charge-form="Teter function with specified parameters" />
<radfunc>
<data npts="256">
  5.462850875827E+01  5.462164227564E+01  5.460111842230E+01  5.456688549443E+01
  5.451930641378E+01  5.445677401032E+01  5.437712503744E+01  5.428598578665E+01
  5.418359322257E+01  5.406429927948E+01  5.392997912805E+01  5.378415611123E+01
  5.360816230477E+01  5.342463737818E+01  5.320851442300E+01  5.299307860514E+01
  5.274550333793E+01  5.251132770582E+01  5.224865023770E+01  5.195416768394E+01
  5.162423843234E+01  5.133209643891E+01  5.101249031323E+01  5.066303420504E+01
  5.028117609114E+01  4.986419519188E+01  4.940920169238E+01  4.904117841756E+01
  4.864870842458E+01  4.823039460726E+01  4.778479496645E+01  4.731042710177E+01
  4.680577396832E+01  4.626929107713E+01  4.569941533189E+01  4.509457570817E+01
  4.445320599222E+01  4.377375980528E+01  4.329889476785E+01  4.280600121066E+01
  4.229465966459E+01  4.176446825233E+01  4.121504623731E+01  4.064603786664E+01
  4.005711651676E+01  3.944798914776E+01  3.881840107008E+01  3.816814102393E+01
  3.749704656818E+01  3.680500977084E+01  3.609198318796E+01  3.535798611204E+01
  3.460311106389E+01  3.382753049400E+01  3.303150365115E+01  3.221538356564E+01
  3.137962408423E+01  3.052478688197E+01  2.965154836335E+01  2.876070635195E+01
  2.785318645325E+01  2.693004796063E+01  2.599248915949E+01  2.504185186930E+01
  2.407962504869E+01  2.310744727497E+01  2.212710789696E+01  2.163447794472E+01
  2.114054664991E+01  2.064557962659E+01  2.014985151381E+01  1.965364579695E+01
  1.915725459304E+01  1.866097839828E+01  1.816512579623E+01  1.767001312508E+01
  1.717596410255E+01  1.668330940715E+01  1.619238621441E+01  1.570353768715E+01
  1.521711241881E+01  1.473346382905E+01  1.425294951112E+01  1.377593053078E+01
  1.330277067654E+01  1.283383566166E+01  1.236949227823E+01  1.191010750445E+01
  1.145604756602E+01  1.100767695356E+01  1.056535739782E+01  1.012944680524E+01
  9.700298156622E+00  9.278258372418E+00  8.863667148281E+00  8.456855765299E+00
  8.058145879705E+00  7.667848297399E+00  7.286261739137E+00  6.913671602754E+00
  6.550348729278E+00  6.196548180312E+00  5.852508034491E+00  5.518448211286E+00
  5.194569330824E+00  4.881051618753E+00  4.578053865467E+00  4.285712449277E+00
  4.004140433259E+00  3.733426745603E+00  3.473635453295E+00  3.224805138844E+00
  2.986948389557E+00  2.760051408543E+00  2.544073756151E+00  2.338948229975E+00
  2.144580890818E+00  1.960851241132E+00  1.787612561460E+00  1.624692409193E+00
  1.471893282717E+00  1.328993452508E+00  1.195747959208E+00  1.071889776983E+00
  9.571311386793E-01  8.511650173522E-01  7.536667568207E-01  6.642958418308E-01
  5.826977963960E-01  5.085061968385E-01  4.413447840681E-01  3.808296577242E-01
  3.265715330195E-01  2.781780394889E-01  2.352560394267E-01  1.974139426042E-01
  1.642639929700E-01  1.354245024599E-01  1.105220068389E-01  8.919331868370E-02
  7.108745322655E-02  5.586740383825E-02  4.321174543566E-02  3.281604607207E-02
  2.439406938800E-02  1.767875345229E-02  1.242295477541E-02  8.399949882435E-03
  5.403690736558E-03  3.248814432433E-03  1.770411850581E-03  8.235642851711E-04
  2.826613250903E-04  4.051737261121E-05  7.308011470721E-06  1.093508725571E-04
  2.877585794210E-04  4.969936835672E-04  7.033571285756E-04  8.834426361454E-04
  1.022589430017E-03  1.113364873471E-03  1.154106888384E-03  1.147553474532E-03
  1.099583314607E-03  1.018087423087E-03  9.119871965050E-04  7.904091981678E-04
  6.620217353819E-04  5.345329537130E-04  4.143449833708E-04  3.063538326644E-04
  2.138804302910E-04  1.387146522496E-04  8.125148295525E-05  4.069676888504E-05
  1.531939644948E-05  2.727181272500E-06  1.452552764580E-07  4.678185745217E-06
  1.354030765870E-05  2.424260015690E-05  3.472865543400E-05  4.345661477486E-05
  4.942811457230E-05  5.216903715245E-05  5.166996693082E-05  4.829652682880E-05
  4.268108828632E-05  3.560765749125E-05  2.790106525550E-05  2.033003073222E-05
  1.353140342483E-05  7.960144963383E-06  3.866661575271E-06  1.300224116090E-06
  1.346868180247E-07  1.107715337453E-07  8.879912973331E-07  2.098934219530E-06
  3.399112958607E-06  4.506810588740E-06  5.229142319284E-06  5.472663360891E-06
  5.239011441612E-06  4.608003110589E-06  3.712066238043E-06  2.706714290160E-06
  1.741869278163E-06  9.382410259804E-07  3.717924530753E-07  6.776898399749E-08
  0.000000000000E+00  0.000000000000E+00  0.000000000000E+00  0.000000000000E+00
  0.000000000000E+00  0.000000000000E+00  0.000000000000E+00  0.000000000000E+00
  0.000000000000E+00  0.000000000000E+00  0.000000000000E+00  0.000000000000E+00
  0.000000000000E+00  0.000000000000E+00  0.000000000000E+00  0.000000000000E+00
  0.000000000000E+00  0.000000000000E+00  0.000000000000E+00  0.000000000000E+00
  0.000000000000E+00  0.000000000000E+00  0.000000000000E+00  0.000000000000E+00
  0.000000000000E+00  0.000000000000E+00  0.000000000000E+00  0.000000000000E+00
  0.000000000000E+00  0.000000000000E+00  0.000000000000E+00  0.000000000000E+00
  0.000000000000E+00  0.000000000000E+00  0.000000000000E+00  0.000000000000E+00
  0.000000000000E+00  0.000000000000E+00  0.000000000000E+00  0.000000000000E+00
  0.000000000000E+00  0.000000000000E+00  0.000000000000E+00  0.000000000000E+00
</data>
</radfunc>
</pseudocore-charge>
<semilocal-potentials set="scalar_relativistic">
<slps n="3" l="s" rc="1.45885293061" eref="-1.72567260011">
<radfunc>
<data npts="256">
  8.199174420706E+00  8.194500014291E+00  8.180534989477E+00  8.157264319168E+00
  8.124967713660E+00  8.082602743779E+00  8.028775776405E+00  7.967367426457E+00
  7.898609545711E+00  7.818811084456E+00  7.729356580126E+00  7.632712049945E+00
  7.516718907461E+00  7.396509224389E+00  7.255915491875E+00  7.116799066159E+00
  6.958183715599E+00  6.809372964702E+00  6.643842841689E+00  6.459996623272E+00
  6.256154952622E+00  6.077512065152E+00  5.884035609873E+00  5.674794951511E+00
  5.448857741511E+00  5.205302190088E+00  4.943231525031E+00  4.734011538138E+00
  4.513555364169E+00  4.281547910409E+00  4.037703586224E+00  3.781771999331E+00
  3.513543950159E+00  3.232857665002E+00  2.939605194077E+00  2.633738885869E+00
  2.315277834824E+00  1.984314186210E+00  1.756806996851E+00  1.523888890989E+00
  1.285648732110E+00  1.042193439832E+00  7.936485533065E-01  5.401587219275E-01
  2.818881157337E-01  1.902074846871E-02 -2.482392930241E-01 -5.196677184922E-01
 -7.950200074236E-01 -1.074031488828E+00 -1.356417529473E+00 -1.641873830946E+00
 -1.930076834350E+00 -2.220684229810E+00 -2.513335566305E+00 -2.807652955683E+00
 -3.103241863040E+00 -3.399691974153E+00 -3.696578129148E+00 -3.993461310358E+00
 -4.289889671233E+00 -4.585399592340E+00 -4.879516749996E+00 -5.171757182855E+00
 -5.461628342029E+00 -5.748630110956E+00 -6.032255782358E+00 -6.172642661765E+00
 -6.311992981480E+00 -6.450241950388E+00 -6.587324527107E+00 -6.723175443171E+00
 -6.857729225138E+00 -6.990920215685E+00 -7.122682593742E+00 -7.252950393787E+00
 -7.381657524420E+00 -7.508737786394E+00 -7.634124890312E+00 -7.757752474274E+00
 -7.879554121752E+00 -7.999463380108E+00 -8.117413780171E+00 -8.233338857390E+00
 -8.347172175156E+00 -8.458847350953E+00 -8.568298086111E+00 -8.675458199977E+00
 -8.780261669454E+00 -8.882642674897E+00 -8.982535653442E+00 -9.079875360879E+00
 -9.174596943212E+00 -9.266636019005E+00 -9.355928773568E+00 -9.442412065861E+00
 -9.526023548818E+00 -9.606701803450E+00 -9.684386486681E+00 -9.759018492366E+00
 -9.830540124293E+00 -9.898895279263E+00 -9.964029637526E+00 -1.002589085706E+01
 -1.008442876729E+01 -1.013959555726E+01 -1.019134595249E+01 -1.023963737467E+01
 -1.028443007831E+01 -1.032568725868E+01 -1.036337512674E+01 -1.039746294770E+01
 -1.042792304190E+01 -1.045473074867E+01 -1.047786435647E+01 -1.049730500452E+01
 -1.051303656364E+01 -1.052504550551E+01 -1.053332077071E+01 -1.053785364638E+01
 -1.053863766368E+01 -1.053566852434E+01 -1.052894406379E+01 -1.051846425593E+01
 -1.050423126254E+01 -1.048624952772E+01 -1.046452591561E+01 -1.043906988796E+01
 -1.040989371656E+01 -1.037701272489E+01 -1.034044555266E+01 -1.030021443707E+01
 -1.025634550471E+01 -1.020886906874E+01 -1.015781992654E+01 -1.010323765426E+01
 -1.004516689564E+01 -9.983657644292E+00 -9.918765519863E+00 -9.850552040840E+00
 -9.779084898538E+00 -9.704438239040E+00 -9.626692961851E+00 -9.545937045846E+00
 -9.462265914456E+00 -9.375782852860E+00 -9.286599490045E+00 -9.194836357857E+00
 -9.100623537572E+00 -9.004101401985E+00 -8.905421457594E+00 -8.804747287242E+00
 -8.702255588484E+00 -8.598137297247E+00 -8.492598779912E+00 -8.385863069995E+00
 -8.278171118084E+00 -8.169783015738E+00 -8.060979145726E+00 -7.952061202419E+00
 -7.843353017454E+00 -7.735201117332E+00 -7.627974931977E+00 -7.522066566571E+00
 -7.417890042131E+00 -7.315879905505E+00 -7.216489109531E+00 -7.120186104909E+00
 -7.027450566437E+00 -6.938767990103E+00 -6.854632584641E+00 -6.773467927794E+00