<pdos>
<nspin>1</nspin>
<norbitals>72</norbitals>
<fermi_energy units="eV"> -0.588079434E+01</fermi_energy>
<energy_values units="eV">
 -0.699999252E+02
 -0.699749169E+02
 -0.699499086E+02
 -0.699249003E+02
 -0.698998919E+02
 -0.698748836E+02
 -0.698498753E+02
 -0.698248670E+02
 -0.697998587E+02
 -0.697748504E+02
 -0.697498421E+02
 -0.697248338E+02
 -0.696998255E+02
 -0.696748172E+02
 -0.696498089E+02
 -0.696248005E+02
 -0.695997922E+02
 -0.695747839E+02
 -0.695497756E+02
 -0.695247673E+02
 -0.694997590E+02
 -0.694747507E+02
 -0.694497424E+02
 -0.694247341E+02
 -0.693997258E+02
 -0.693747175E+02
 -0.693497091E+02
 -0.693247008E+02
 -0.692996925E+02
 -0.692746842E+02
 -0.692496759E+02
 -0.692246676E+02
 -0.691996593E+02
 -0.691746510E+02
 -0.691496427E+02
 -0.691246344E+02
 -0.690996260E+02
 -0.690746177E+02
 -0.690496094E+02
 -0.690246011E+02
 -0.689995928E+02
 -0.689745845E+02
 -0.689495762E+02
 -0.689245679E+02
 -0.688995596E+02
 -0.688745513E+02
 -0.688495430E+02
 -0.688245346E+02
 -0.687995263E+02
 -0.687745180E+02
 -0.687495097E+02
 -0.687245014E+02
 -0.686994931E+02
 -0.686744848E+02
 -0.686494765E+02
 -0.686244682E+02
 -0.685994599E+02
 -0.685744516E+02
 -0.685494432E+02
 -0.685244349E+02
 -0.684994266E+02
 -0.684744183E+02
 -0.684494100E+02
 -0.684244017E+02
 -0.683993934E+02
 -0.683743851E+02
 -0.683493768E+02
 -0.683243685E+02
 -0.682993601E+02
 -0.682743518E+02
 -0.682493435E+02
 -0.682243352E+02
 -0.681993269E+02
 -0.681743186E+02
 -0.681493103E+02
 -0.681243020E+02
 -0.680992937E+02
 -0.680742854E+02
 -0.680492771E+02
 -0.680242687E+02
 -0.679992604E+02
 -0.679742521E+02
 -0.679492438E+02
 -0.679242355E+02
 -0.678992272E+02
 -0.678742189E+02
 -0.678492106E+02
 -0.678242023E+02
 -0.677991940E+02
 -0.677741857E+02
 -0.677491773E+02
 -0.677241690E+02
 -0.676991607E+02
 -0.676741524E+02
 -0.676491441E+02
 -0.676241358E+02
 -0.675991275E+02
 -0.675741192E+02
 -0.675491109E+02
 -0.675241026E+02
 -0.674990942E+02
 -0.674740859E+02
 -0.674490776E+02
 -0.674240693E+02
 -0.673990610E+02
 -0.673740527E+02
 -0.673490444E+02
 -0.673240361E+02
 -0.672990278E+02
 -0.672740195E+02
 -0.672490112E+02
 -0.672240028E+02
 -0.671989945E+02
 -0.671739862E+02
 -0.671489779E+02
 -0.671239696E+02
 -0.670989613E+02
 -0.670739530E+02
 -0.670489447E+02
 -0.670239364E+02
 -0.669989281E+02
 -0.669739198E+02
 -0.669489114E+02
 -0.669239031E+02
 -0.668988948E+02
 -0.668738865E+02
 -0.668488782E+02
 -0.668238699E+02
 -0.667988616E+02
 -0.667738533E+02
 -0.667488450E+02
 -0.667238367E+02
 -0.666988283E+02
 -0.666738200E+02
 -0.666488117E+02
 -0.666238034E+02
 -0.665987951E+02
 -0.665737868E+02
 -0.665487785E+02
 -0.665237702E+02
 -0.664987619E+02
 -0.664737536E+02
 -0.664487453E+02
 -0.664237369E+02
 -0.663987286E+02
 -0.663737203E+02
 -0.663487120E+02
 -0.663237037E+02
 -0.662986954E+02
 -0.662736871E+02
 -0.662486788E+02
 -0.662236705E+02
 -0.661986622E+02
 -0.661736539E+02
 -0.661486455E+02
 -0.661236372E+02
 -0.660986289E+02
 -0.660736206E+02
 -0.660486123E+02
 -0.660236040E+02
 -0.659985957E+02
 -0.659735874E+02
 -0.659485791E+02
 -0.659235708E+02
 -0.658985624E+02
 -0.658735541E+02
 -0.658485458E+02
 -0.658235375E+02
 -0.657985292E+02
 -0.657735209E+02
 -0.657485126E+02
 -0.657235043E+02
 -0.656984960E+02
 -0.656734877E+02
 -0.656484794E+02
 -0.656234710E+02
 -0.655984627E+02
 -0.655734544E+02
 -0.655484461E+02
 -0.655234378E+02
 -0.654984295E+02
 -0.654734212E+02
 -0.654484129E+02
 -0.654234046E+02
 -0.653983963E+02
 -0.653733880E+02
 -0.653483796E+02
 -0.653233713E+02
 -0.652983630E+02
 -0.652733547E+02
 -0.652483464E+02
 -0.652233381E+02
 -0.651983298E+02
 -0.651733215E+02
 -0.651483132E+02
 -0.651233049E+02
 -0.650982965E+02
 -0.650732882E+02
 -0.650482799E+02
 -0.650232716E+02
 -0.649982633E+02
 -0.649732550E+02
 -0.649482467E+02
 -0.649232384E+02
 -0.648982301E+02
 -0.648732218E+02
 -0.648482135E+02
 -0.648232051E+02
 -0.647981968E+02
 -0.647731885E+02
 -0.647481802E+02
 -0.647231719E+02
 -0.646981636E+02
 -0.646731553E+02
 -0.646481470E+02
 -0.646231387E+02
 -0.645981304E+02
 -0.645731221E+02
 -0.645481137E+02
 -0.645231054E+02
 -0.644980971E+02
 -0.644730888E+02
 -0.644480805E+02
 -0.644230722E+02
 -0.643980639E+02
 -0.643730556E+02
 -0.643480473E+02
 -0.643230390E+02
 -0.642980306E+02
 -0.642730223E+02
 -0.642480140E+02
 -0.642230057E+02
 -0.641979974E+02
 -0.641729891E+02
 -0.641479808E+02
 -0.641229725E+02
 -0.640979642E+02
 -0.640729559E+02
 -0.640479476E+02
 -0.640229392E+02
 -0.639979309E+02
 -0.639729226E+02
 -0.639479143E+02
 -0.639229060E+02
 -0.638978977E+02
 -0.638728894E+02
 -0.638478811E+02
 -0.638228728E+02
 -0.637978645E+02
 -0.637728562E+02
 -0.637478478E+02
 -0.637228395E+02
 -0.636978312E+02
 -0.636728229E+02
 -0.636478146E+02
 -0.636228063E+02
 -0.635977980E+02
 -0.635727897E+02
 -0.635477814E+02
 -0.635227731E+02
 -0.634977647E+02
 -0.634727564E+02
 -0.634477481E+02
 -0.634227398E+02
 -0.633977315E+02
 -0.633727232E+02
 -0.633477149E+02
 -0.633227066E+02
 -0.632976983E+02
 -0.632726900E+02
 -0.632476817E+02
 -0.632226733E+02
 -0.631976650E+02
 -0.631726567E+02
 -0.631476484E+02
 -0.631226401E+02
 -0.630976318E+02
 -0.630726235E+02
 -0.630476152E+02
 -0.630226069E+02
 -0.629975986E+02
 -0.629725902E+02
 -0.629475819E+02
 -0.629225736E+02
 -0.628975653E+02
 -0.628725570E+02
 -0.628475487E+02
 -0.628225404E+02
 -0.627975321E+02
 -0.627725238E+02
 -0.627475155E+02
 -0.627225072E+02
 -0.626974988E+02
 -0.626724905E+02
 -0.626474822E+02
 -0.626224739E+02
 -0.625974656E+02
 -0.625724573E+02
 -0.625474490E+02
 -0.625224407E+02
 -0.624974324E+02
 -0.624724241E+02
 -0.624474158E+02
 -0.624224074E+02
 -0.623973991E+02
 -0.623723908E+02
 -0.623473825E+02
 -0.623223742E+02
 -0.622973659E+02
 -0.622723576E+02
 -0.622473493E+02
 -0.622223410E+02
 -0.621973327E+02
 -0.621723243E+02
 -0.621473160E+02
 -0.621223077E+02
 -0.620972994E+02
 -0.620722911E+02
 -0.620472828E+02
 -0.620222745E+02
 -0.619972662E+02
 -0.619722579E+02
 -0.619472496E+02
 -0.619222413E+02
 -0.618972329E+02
 -0.618722246E+02
 -0.618472163E+02
 -0.618222080E+02
 -0.617971997E+02
 -0.617721914E+02
 -0.617471831E+02
 -0.617221748E+02
 -0.616971665E+02
 -0.616721582E+02
 -0.616471499E+02
 -0.616221415E+02
 -0.615971332E+02
 -0.615721249E+02
 -0.615471166E+02
 -0.615221083E+02
 -0.614971000E+02
 -0.614720917E+02
 -0.614470834E+02
 -0.614220751E+02
 -0.613970668E+02
 -0.613720584E+02
 -0.613470501E+02
 -0.613220418E+02
 -0.612970335E+02
 -0.612720252E+02
 -0.612470169E+02
 -0.612220086E+02
 -0.611970003E+02
 -0.611719920E+02
 -0.611469837E+02
 -0.611219754E+02
 -0.610969670E+02
 -0.610719587E+02
 -0.610469504E+02
 -0.610219421E+02
 -0.609969338E+02
 -0.609719255E+02
 -0.609469172E+02
 -0.609219089E+02
 -0.608969006E+02
 -0.608718923E+02
 -0.608468840E+02
 -0.608218756E+02
 -0.607968673E+02
 -0.607718590E+02
 -0.607468507E+02
 -0.607218424E+02
 -0.606968341E+02
 -0.606718258E+02
 -0.606468175E+02
 -0.606218092E+02
 -0.605968009E+02
 -0.605717925E+02
 -0.605467842E+02
 -0.605217759E+02
 -0.604967676E+02
 -0.604717593E+02
 -0.604467510E+02
 -0.604217427E+02
 -0.603967344E+02
 -0.603717261E+02
 -0.603467178E+02
 -0.603217095E+02
 -0.602967011E+02
 -0.602716928E+02
 -0.602466845E+02
 -0.602216762E+02
 -0.601966679E+02
 -0.601716596E+02
 -0.601466513E+02
 -0.601216430E+02
 -0.600966347E+02
 -0.600716264E+02
 -0.600466181E+02
 -0.600216097E+02
 -0.599966014E+02
 -0.599715931E+02
 -0.599465848E+02
 -0.599215765E+02
 -0.598965682E+02
 -0.598715599E+02
 -0.598465516E+02
 -0.598215433E+02
 -0.597965350E+02
 -0.597715266E+02
 -0.597465183E+02
 -0.597215100E+02
 -0.596965017E+02
 -0.596714934E+02
 -0.596464851E+02
 -0.596214768E+02
 -0.595964685E+02
 -0.595714602E+02
 -0.595464519E+02
 -0.595214436E+02
 -0.594964352E+02
 -0.594714269E+02
 -0.594464186E+02
 -0.594214103E+02
 -0.593964020E+02
 -0.593713937E+02
 -0.593463854E+02
 -0.593213771E+02
 -0.592963688E+02
 -0.592713605E+02
 -0.592463522E+02
 -0.592213438E+02
 -0.591963355E+02
 -0.591713272E+02
 -0.591463189E+02
 -0.591213106E+02
 -0.590963023E+02
 -0.590712940E+02
 -0.590462857E+02
 -0.590212774E+02
 -0.589962691E+02
 -0.589712607E+02
 -0.589462524E+02
 -0.589212441E+02
 -0.588962358E+02
 -0.588712275E+02
 -0.588462192E+02
 -0.588212109E+02
 -0.587962026E+02
 -0.587711943E+02
 -0.587461860E+02
 -0.587211777E+02
 -0.586961693E+02
 -0.586711610E+02
 -0.586461527E+02
 -0.586211444E+02
 -0.585961361E+02
 -0.585711278E+02
 -0.585461195E+02
 -0.585211112E+02
 -0.584961029E+02
 -0.584710946E+02
 -0.584460863E+02
 -0.584210779E+02
 -0.583960696E+02
 -0.583710613E+02
 -0.583460530E+02
 -0.583210447E+02
 -0.582960364E+02
 -0.582710281E+02
 -0.582460198E+02
 -0.582210115E+02
 -0.581960032E+02
 -0.581709948E+02
 -0.581459865E+02
 -0.581209782E+02
 -0.580959699E+02
 -0.580709616E+02
 -0.580459533E+02
 -0.580209450E+02
 -0.579959367E+02
 -0.579709284E+02
 -0.579459201E+02
 -0.579209118E+02
 -0.578959034E+02
 -0.578708951E+02
 -0.578458868E+02
 -0.578208785E+02
 -0.577958702E+02
 -0.577708619E+02
 -0.577458536E+02
 -0.577208453E+02
 -0.576958370E+02
 -0.576708287E+02
 -0.576458204E+02
 -0.576208120E+02
 -0.575958037E+02
 -0.575707954E+02
 -0.575457871E+02
 -0.575207788E+02
 -0.574957705E+02
 -0.574707622E+02
 -0.574457539E+02
 -0.574207456E+02
 -0.573957373E+02
 -0.573707289E+02
 -0.573457206E+02
 -0.573207123E+02
 -0.572957040E+02
 -0.572706957E+02
 -0.572456874E+02
 -0.572206791E+02
 -0.571956708E+02
 -0.571706625E+02
 -0.571456542E+02
 -0.571206459E+02
 -0.570956375E+02
 -0.570706292E+02
 -0.570456209E+02
 -0.570206126E+02
 -0.569956043E+02
 -0.569705960E+02
 -0.569455877E+02
 -0.569205794E+02
 -0.568955711E+02
 -0.568705628E+02
 -0.568455545E+02
 -0.568205461E+02
 -0.567955378E+02
 -0.567705295E+02
 -0.567455212E+02
 -0.567205129E+02
 -0.566955046E+02
 -0.566704963E+02
 -0.566454880E+02
 -0.566204797E+02
 -0.565954714E+02
 -0.565704630E+02
 -0.565454547E+02
 -0.565204464E+02
 -0.564954381E+02
 -0.564704298E+02
 -0.564454215E+02
 -0.564204132E+02
 -0.563954049E+02
 -0.563703966E+02
 -0.563453883E+02
 -0.563203800E+02
 -0.562953716E+02
 -0.562703633E+02
 -0.562453550E+02
 -0.562203467E+02
 -0.561953384E+02
 -0.561703301E+02
 -0.561453218E+02
 -0.561203135E+02
 -0.560953052E+02
 -0.560702969E+02
 -0.560452886E+02
 -0.560202802E+02
 -0.559952719E+02
 -0.559702636E+02
 -0.559452553E+02
 -0.559202470E+02
 -0.558952387E+02
 -0.558702304E+02
 -0.558452221E+02
 -0.558202138E+02
 -0.557952055E+02
 -0.557701971E+02
 -0.557451888E+02
 -0.557201805E+02
 -0.556951722E+02
 -0.556701639E+02
 -0.556451556E+02
 -0.556201473E+02
 -0.555951390E+02
 -0.555701307E+02
 -0.555451224E+02
 -0.555201141E+02
 -0.554951057E+02
 -0.554700974E+02
 -0.554450891E+02
 -0.554200808E+02
 -0.553950725E+02
 -0.553700642E+02
 -0.553450559E+02
 -0.553200476E+02
 -0.552950393E+02
 -0.552700310E+02
 -0.552450227E+02
 -0.552200143E+02
 -0.551950060E+02
 -0.551699977E+02
 -0.551449894E+02
 -0.551199811E+02
 -0.550949728E+02
 -0.550699645E+02
 -0.550449562E+02
 -0.550199479E+02
 -0.549949396E+02
 -0.549699312E+02
 -0.549449229E+02
 -0.549199146E+02
 -0.548949063E+02
 -0.548698980E+02
 -0.548448897E+02
 -0.548198814E+02
 -0.547948731E+02
 -0.547698648E+02
 -0.547448565E+02
 -0.547198482E+02
 -0.546948398E+02
 -0.546698315E+02
 -0.546448232E+02
 -0.546198149E+02
 -0.545948066E+02
 -0.545697983E+02
 -0.545447900E+02
 -0.545197817E+02
 -0.544947734E+02
 -0.544697651E+02
 -0.544447567E+02
 -0.544197484E+02
 -0.543947401E+02
 -0.543697318E+02
 -0.543447235E+02
 -0.543197152E+02
 -0.542947069E+02
 -0.542696986E+02
 -0.542446903E+02
 -0.542196820E+02
 -0.541946737E+02
 -0.541696653E+02
 -0.541446570E+02
 -0.541196487E+02
 -0.540946404E+02
 -0.540696321E+02
 -0.540446238E+02
 -0.540196155E+02
 -0.539946072E+02
 -0.539695989E+02
 -0.539445906E+02
 -0.539195823E+02
 -0.538945739E+02
 -0.538695656E+02
 -0.538445573E+02
 -0.538195490E+02
 -0.537945407E+02
 -0.537695324E+02
 -0.537445241E+02
 -0.537195158E+02
 -0.536945075E+02
 -0.536694992E+02
 -0.536444908E+02
 -0.536194825E+02
 -0.535944742E+02
 -0.535694659E+02
 -0.535444576E+02
 -0.535194493E+02
 -0.534944410E+02
 -0.534694327E+02
 -0.534444244E+02
 -0.534194161E+02
 -0.533944078E+02
 -0.533693994E+02
 -0.533443911E+02
 -0.533193828E+02
 -0.532943745E+02
 -0.532693662E+02
 -0.532443579E+02
 -0.532193496E+02
 -0.531943413E+02
 -0.531693330E+02
 -0.531443247E+02
 -0.531193164E+02
 -0.530943080E+02
 -0.530692997E+02
 -0.530442914E+02
 -0.530192831E+02
 -0.529942748E+02
 -0.529692665E+02
 -0.529442582E+02
 -0.529192499E+02
 -0.528942416E+02
 -0.528692333E+02
 -0.528442249E+02
 -0.528192166E+02
 -0.527942083E+02
 -0.527692000E+02
 -0.527441917E+02
 -0.527191834E+02
 -0.526941751E+02
 -0.526691668E+02
 -0.526441585E+02
 -0.526191502E+02
 -0.525941419E+02
 -0.525691335E+02
 -0.525441252E+02
 -0.525191169E+02
 -0.524941086E+02
 -0.524691003E+02
 -0.524440920E+02
 -0.524190837E+02
 -0.523940754E+02
 -0.523690671E+02
 -0.523440588E+02
 -0.523190505E+02
 -0.522940421E+02
 -0.522690338E+02
 -0.522440255E+02
 -0.522190172E+02
 -0.521940089E+02
 -0.521690006E+02
 -0.521439923E+02
 -0.521189840E+02
 -0.520939757E+02
 -0.520689674E+02
 -0.520439590E+02
 -0.520189507E+02
 -0.519939424E+02
 -0.519689341E+02
 -0.519439258E+02
 -0.519189175E+02
 -0.518939092E+02
 -0.518689009E+02
 -0.518438926E+02
 -0.518188843E+02
 -0.517938760E+02
 -0.517688676E+02
 -0.517438593E+02
 -0.517188510E+02
 -0.516938427E+02
 -0.516688344E+02
 -0.516438261E+02
 -0.516188178E+02
 -0.515938095E+02
 -0.515688012E+02
 -0.515437929E+02
 -0.515187846E+02
 -0.514937762E+02
 -0.514687679E+02
 -0.514437596E+02
 -0.514187513E+02
 -0.513937430E+02
 -0.513687347E+02
 -0.513437264E+02
 -0.513187181E+02
 -0.512937098E+02
 -0.512687015E+02
 -0.512436931E+02
 -0.512186848E+02
 -0.511936765E+02
 -0.511686682E+02
 -0.511436599E+02
 -0.511186516E+02
 -0.510936433E+02
 -0.510686350E+02
 -0.510436267E+02
 -0.510186184E+02
 -0.509936101E+02
 -0.509686017E+02
 -0.509435934E+02
 -0.509185851E+02
 -0.508935768E+02
 -0.508685685E+02
 -0.508435602E+02
 -0.508185519E+02
 -0.507935436E+02
 -0.507685353E+02
 -0.507435270E+02
 -0.507185187E+02
 -0.506935103E+02
 -0.506685020E+02
 -0.506434937E+02
 -0.506184854E+02
 -0.505934771E+02
 -0.505684688E+02
 -0.505434605E+02
 -0.505184522E+02
 -0.504934439E+02
 -0.504684356E+02
 -0.504434272E+02
 -0.504184189E+02
 -0.503934106E+02
 -0.503684023E+02
 -0.503433940E+02
 -0.503183857E+02
 -0.502933774E+02
 -0.502683691E+02
 -0.502433608E+02
 -0.502183525E+02
 -0.501933442E+02
 -0.501683358E+02
 -0.501433275E+02
 -0.501183192E+02
 -0.500933109E+02
 -0.500683026E+02
 -0.500432943E+02
 -0.500182860E+02
 -0.499932777E+02
 -0.499682694E+02
 -0.499432611E+02
 -0.499182528E+02
 -0.498932444E+02
 -0.498682361E+02
 -0.498432278E+02
 -0.498182195E+02
 -0.497932112E+02
 -0.497682029E+02
 -0.497431946E+02
 -0.497181863E+02
 -0.496931780E+02
 -0.496681697E+02
 -0.496431613E+02
 -0.496181530E+02
 -0.495931447E+02
 -0.495681364E+02
 -0.495431281E+02
 -0.495181198E+02
 -0.494931115E+02
 -0.494681032E+02
 -0.494430949E+02
 -0.494180866E+02
 -0.493930783E+02
 -0.493680699E+02
 -0.493430616E+02
 -0.493180533E+02
 -0.492930450E+02
 -0.492680367E+02
 -0.492430284E+02
 -0.492180201E+02
 -0.491930118E+02
 -0.491680035E+02
 -0.491429952E+02
 -0.491179869E+02
 -0.490929785E+02
 -0.490679702E+02
 -0.490429619E+02
 -0.490179536E+02
 -0.489929453E+02
 -0.489679370E+02
 -0.489429287E+02
 -0.489179204E+02
 -0.488929121E+02
 -0.488679038E+02
 -0.488428954E+02
 -0.488178871E+02
 -0.487928788E+02
 -0.487678705E+02
 -0.487428622E+02
 -0.487178539E+02
 -0.486928456E+02
 -0.486678373E+02
 -0.486428290E+02
 -0.486178207E+02
 -0.485928124E+02
 -0.485678040E+02
 -0.485427957E+02
 -0.485177874E+02
 -0.484927791E+02
 -0.484677708E+02
 -0.484427625E+02
 -0.484177542E+02
 -0.483927459E+02
 -0.483677376E+02
 -0.483427293E+02
 -0.483177210E+02
 -0.482927126E+02
 -0.482677043E+02
 -0.482426960E+02
 -0.482176877E+02
 -0.481926794E+02
 -0.481676711E+02
 -0.481426628E+02
 -0.481176545E+02
 -0.480926462E+02
 -0.480676379E+02
 -0.480426295E+02
 -0.480176212E+02
 -0.479926129E+02
 -0.479676046E+02
 -0.479425963E+02
 -0.479175880E+02
 -0.478925797E+02
 -0.478675714E+02
 -0.478425631E+02
 -0.478175548E+02
 -0.477925465E+02
 -0.477675381E+02
 -0.477425298E+02
 -0.477175215E+02
 -0.476925132E+02
 -0.476675049E+02
 -0.476424966E+02
 -0.476174883E+02
 -0.475924800E+02
 -0.475674717E+02
 -0.475424634E+02
 -0.475174551E+02
 -0.474924467E+02
 -0.474674384E+02
 -0.474424301E+02
 -0.474174218E+02
 -0.473924135E+02
 -0.473674052E+02
 -0.473423969E+02
 -0.473173886E+02
 -0.472923803E+02
 -0.472673720E+02
 -0.472423636E+02
 -0.472173553E+02
 -0.471923470E+02
 -0.471673387E+02
 -0.471423304E+02
 -0.471173221E+02
 -0.470923138E+02
 -0.470673055E+02
 -0.470422972E+02
 -0.470172889E+02
 -0.469922806E+02
 -0.469672722E+02
 -0.469422639E+02
 -0.469172556E+02
 -0.468922473E+02
 -0.468672390E+02
 -0.468422307E+02
 -0.468172224E+02
 -0.467922141E+02
 -0.467672058E+02
 -0.467421975E+02
 -0.467171892E+02
 -0.466921808E+02
 -0.466671725E+02
 -0.466421642E+02
 -0.466171559E+02
 -0.465921476E+02
 -0.465671393E+02
 -0.465421310E+02
 -0.465171227E+02
 -0.464921144E+02
 -0.464671061E+02
 -0.464420977E+02
 -0.464170894E+02
 -0.463920811E+02
 -0.463670728E+02
 -0.463420645E+02
 -0.463170562E+02
 -0.462920479E+02
 -0.462670396E+02
 -0.462420313E+02
 -0.462170230E+02
 -0.461920147E+02
 -0.461670063E+02
 -0.461419980E+02
 -0.461169897E+02
 -0.460919814E+02
 -0.460669731E+02
 -0.460419648E+02
 -0.460169565E+02
 -0.459919482E+02
 -0.459669399E+02
 -0.459419316E+02
 -0.459169232E+02
 -0.458919149E+02
 -0.458669066E+02
 -0.458418983E+02
 -0.458168900E+02
 -0.457918817E+02
 -0.457668734E+02
 -0.457418651E+02
 -0.457168568E+02
 -0.456918485E+02
 -0.456668402E+02
 -0.456418318E+02
 -0.456168235E+02
 -0.455918152E+02
 -0.455668069E+02
 -0.455417986E+02
 -0.455167903E+02
 -0.454917820E+02
 -0.454667737E+02
 -0.454417654E+02
 -0.454167571E+02
 -0.453917488E+02
 -0.453667404E+02
 -0.453417321E+02
 -0.453167238E+02
 -0.452917155E+02
 -0.452667072E+02
 -0.452416989E+02
 -0.452166906E+02
 -0.451916823E+02
 -0.451666740E+02
 -0.451416657E+02
 -0.451166573E+02
 -0.450916490E+02
 -0.450666407E+02
 -0.450416324E+02
 -0.450166241E+02
 -0.449916158E+02
 -0.449666075E+02
 -0.449415992E+02
 -0.449165909E+02
 -0.448915826E+02
 -0.448665743E+02
 -0.448415659E+02
 -0.448165576E+02
 -0.447915493E+02
 -0.447665410E+02
 -0.447415327E+02
 -0.447165244E+02
 -0.446915161E+02
 -0.446665078E+02
 -0.446414995E+02
 -0.446164912E+02
 -0.445914829E+02
 -0.445664745E+02
 -0.445414662E+02
 -0.445164579E+02
 -0.444914496E+02
 -0.444664413E+02
 -0.444414330E+02
 -0.444164247E+02
 -0.443914164E+02
 -0.443664081E+02
 -0.443413998E+02
 -0.443163914E+02
 -0.442913831E+02
 -0.442663748E+02
 -0.442413665E+02
 -0.442163582E+02
 -0.441913499E+02
 -0.441663416E+02
 -0.441413333E+02
 -0.441163250E+02
 -0.440913167E+02
 -0.440663084E+02
 -0.440413000E+02
 -0.440162917E+02
 -0.439912834E+02
 -0.439662751E+02
 -0.439412668E+02
 -0.439162585E+02
 -0.438912502E+02
 -0.438662419E+02
 -0.438412336E+02
 -0.438162253E+02
 -0.437912170E+02
 -0.437662086E+02
 -0.437412003E+02
 -0.437161920E+02
 -0.436911837E+02
 -0.436661754E+02
 -0.436411671E+02
 -0.436161588E+02
 -0.435911505E+02
 -0.435661422E+02
 -0.435411339E+02
 -0.435161255E+02
 -0.434911172E+02
 -0.434661089E+02
 -0.434411006E+02
 -0.434160923E+02
 -0.433910840E+02
 -0.433660757E+02
 -0.433410674E+02
 -0.433160591E+02
 -0.432910508E+02
 -0.432660425E+02
 -0.432410341E+02
 -0.432160258E+02
 -0.431910175E+02
 -0.431660092E+02
 -0.431410009E+02
 -0.431159926E+02
 -0.430909843E+02
 -0.430659760E+02
 -0.430409677E+02
 -0.430159594E+02
 -0.429909511E+02
 -0.429659427E+02
 -0.429409344E+02
 -0.429159261E+02
 -0.428909178E+02
 -0.428659095E+02
 -0.428409012E+02
 -0.428158929E+02
 -0.427908846E+02
 -0.427658763E+02
 -0.427408680E+02
 -0.427158596E+02
 -0.426908513E+02
 -0.426658430E+02
 -0.426408347E+02
 -0.426158264E+02
 -0.425908181E+02
 -0.425658098E+02
 -0.425408015E+02
 -0.425157932E+02
 -0.424907849E+02
 -0.424657766E+02
 -0.424407682E+02
 -0.424157599E+02
 -0.423907516E+02
 -0.423657433E+02
 -0.423407350E+02
 -0.423157267E+02
 -0.422907184E+02
 -0.422657101E+02
 -0.422407018E+02
 -0.422156935E+02
 -0.421906852E+02
 -0.421656768E+02
 -0.421406685E+02
 -0.421156602E+02
 -0.420906519E+02
 -0.420656436E+02
 -0.420406353E+02
 -0.420156270E+02
 -0.419906187E+02
 -0.419656104E+02
 -0.419406021E+02
 -0.419155937E+02
 -0.418905854E+02
 -0.418655771E+02
 -0.418405688E+02
 -0.418155605E+02
 -0.417905522E+02
 -0.417655439E+02
 -0.417405356E+02
 -0.417155273E+02
 -0.416905190E+02
 -0.416655107E+02
 -0.416405023E+02
 -0.416154940E+02
 -0.415904857E+02
 -0.415654774E+02
 -0.415404691E+02
 -0.415154608E+02
 -0.414904525E+02
 -0.414654442E+02
 -0.414404359E+02
 -0.414154276E+02
 -0.413904193E+02
 -0.413654109E+02
 -0.413404026E+02
 -0.413153943E+02
 -0.412903860E+02
 -0.412653777E+02
 -0.412403694E+02
 -0.412153611E+02
 -0.411903528E+02
 -0.411653445E+02
 -0.411403362E+02
 -0.411153278E+02
 -0.410903195E+02
 -0.410653112E+02
 -0.410403029E+02
 -0.410152946E+02
 -0.409902863E+02
 -0.409652780E+02
 -0.409402697E+02
 -0.409152614E+02
 -0.408902531E+02
 -0.408652448E+02
 -0.408402364E+02
 -0.408152281E+02
 -0.407902198E+02
 -0.407652115E+02
 -0.407402032E+02
 -0.407151949E+02
 -0.406901866E+02
 -0.406651783E+02
 -0.406401700E+02
 -0.406151617E+02
 -0.405901534E+02
 -0.405651450E+02
 -0.405401367E+02
 -0.405151284E+02
 -0.404901201E+02
 -0.404651118E+02
 -0.404401035E+02
 -0.404150952E+02
 -0.403900869E+02
 -0.403650786E+02
 -0.403400703E+02
 -0.403150619E+02
 -0.402900536E+02
 -0.402650453E+02
 -0.402400370E+02
 -0.402150287E+02
 -0.401900204E+02
 -0.401650121E+02
 -0.401400038E+02
 -0.401149955E+02
 -0.400899872E+02
 -0.400649789E+02
 -0.400399705E+02
 -0.400149622E+02
 -0.399899539E+02
 -0.399649456E+02
 -0.399399373E+02
 -0.399149290E+02
 -0.398899207E+02
 -0.398649124E+02
 -0.398399041E+02
 -0.398148958E+02
 -0.397898875E+02
 -0.397648791E+02
 -0.397398708E+02
 -0.397148625E+02
 -0.396898542E+02
 -0.396648459E+02
 -0.396398376E+02
 -0.396148293E+02
 -0.395898210E+02
 -0.395648127E+02
 -0.395398044E+02
 -0.395147960E+02
 -0.394897877E+02
 -0.394647794E+02
 -0.394397711E+02
 -0.394147628E+02
 -0.393897545E+02
 -0.393647462E+02
 -0.393397379E+02
 -0.393147296E+02
 -0.392897213E+02
 -0.392647130E+02
 -0.392397046E+02
 -0.392146963E+02
 -0.391896880E+02
 -0.391646797E+02
 -0.391396714E+02
 -0.391146631E+02
 -0.390896548E+02
 -0.390646465E+02
 -0.390396382E+02
 -0.390146299E+02
 -0.389896216E+02
 -0.389646132E+02
 -0.389396049E+02
 -0.389145966E+02
 -0.388895883E+02
 -0.388645800E+02
 -0.388395717E+02
 -0.388145634E+02
 -0.387895551E+02
 -0.387645468E+02
 -0.387395385E+02
 -0.387145301E+02
 -0.386895218E+02
 -0.386645135E+02
 -0.386395052E+02
 -0.386144969E+02
 -0.385894886E+02
 -0.385644803E+02
 -0.385394720E+02
 -0.385144637E+02
 -0.384894554E+02
 -0.384644471E+02
 -0.384394387E+02
 -0.384144304E+02
 -0.383894221E+02
 -0.383644138E+02
 -0.383394055E+02
 -0.383143972E+02
 -0.382893889E+02
 -0.382643806E+02
 -0.382393723E+02
 -0.382143640E+02
 -0.381893557E+02
 -0.381643473E+02
 -0.381393390E+02
 -0.381143307E+02
 -0.380893224E+02
 -0.380643141E+02
 -0.380393058E+02
 -0.380142975E+02
 -0.379892892E+02
 -0.379642809E+02
 -0.379392726E+02
 -0.379142642E+02
 -0.378892559E+02
 -0.378642476E+02
 -0.378392393E+02
 -0.378142310E+02
 -0.377892227E+02
 -0.377642144E+02
 -0.377392061E+02
 -0.377141978E+02
 -0.376891895E+02
 -0.376641812E+02
 -0.376391728E+02
 -0.376141645E+02
 -0.375891562E+02
 -0.375641479E+02
 -0.375391396E+02
 -0.375141313E+02
 -0.374891230E+02
 -0.374641147E+02
 -0.374391064E+02
 -0.374140981E+02
 -0.373890897E+02
 -0.373640814E+02
 -0.373390731E+02
 -0.373140648E+02
 -0.372890565E+02
 -0.372640482E+02
 -0.372390399E+02
 -0.372140316E+02
 -0.371890233E+02
 -0.371640150E+02
 -0.371390067E+02
 -0.371139983E+02
 -0.370889900E+02
 -0.370639817E+02
 -0.370389734E+02
 -0.370139651E+02
 -0.369889568E+02
 -0.369639485E+02
 -0.369389402E+02
 -0.369139319E+02
 -0.368889236E+02
 -0.368639153E+02
 -0.368389069E+02
 -0.368138986E+02
 -0.367888903E+02
 -0.367638820E+02
 -0.367388737E+02
 -0.367138654E+02
 -0.366888571E+02
 -0.366638488E+02
 -0.366388405E+02
 -0.366138322E+02
 -0.365888238E+02
 -0.365638155E+02
 -0.365388072E+02
 -0.365137989E+02
 -0.364887906E+02
 -0.364637823E+02
 -0.364387740E+02
 -0.364137657E+02
 -0.363887574E+02
 -0.363637491E+02
 -0.363387408E+02
 -0.363137324E+02
 -0.362887241E+02
 -0.362637158E+02
 -0.362387075E+02
 -0.362136992E+02
 -0.361886909E+02
 -0.361636826E+02
 -0.361386743E+02
 -0.361136660E+02
 -0.360886577E+02
 -0.360636494E+02
 -0.360386410E+02
 -0.360136327E+02
 -0.359886244E+02
 -0.359636161E+02
 -0.359386078E+02
 -0.359135995E+02
 -0.358885912E+02
 -0.358635829E+02
 -0.358385746E+02
 -0.358135663E+02
 -0.357885579E+02
 -0.357635496E+02
 -0.357385413E+02
 -0.357135330E+02
 -0.356885247E+02
 -0.356635164E+02
 -0.356385081E+02
 -0.356134998E+02
 -0.355884915E+02
 -0.355634832E+02
 -0.355384749E+02
 -0.355134665E+02
 -0.354884582E+02
 -0.354634499E+02
 -0.354384416E+02
 -0.354134333E+02
 -0.353884250E+02
 -0.353634167E+02
 -0.353384084E+02
 -0.353134001E+02
 -0.352883918E+02
 -0.352633835E+02
 -0.352383751E+02
 -0.352133668E+02
 -0.351883585E+02
 -0.351633502E+02
 -0.351383419E+02
 -0.351133336E+02
 -0.350883253E+02
 -0.350633170E+02
 -0.350383087E+02
 -0.350133004E+02
 -0.349882920E+02
 -0.349632837E+02
 -0.349382754E+02
 -0.349132671E+02
 -0.348882588E+02
 -0.348632505E+02
 -0.348382422E+02
 -0.348132339E+02
 -0.347882256E+02
 -0.347632173E+02
 -0.347382090E+02
 -0.347132006E+02
 -0.346881923E+02
 -0.346631840E+02
 -0.346381757E+02
 -0.346131674E+02
 -0.345881591E+02
 -0.345631508E+02
 -0.345381425E+02
 -0.345131342E+02
 -0.344881259E+02
 -0.344631176E+02
 -0.344381092E+02
 -0.344131009E+02
 -0.343880926E+02
 -0.343630843E+02
 -0.343380760E+02
 -0.343130677E+02
 -0.342880594E+02
 -0.342630511E+02
 -0.342380428E+02
 -0.342130345E+02
 -0.341880261E+02
 -0.341630178E+02
 -0.341380095E+02
 -0.341130012E+02
 -0.340879929E+02
 -0.340629846E+02
 -0.340379763E+02
 -0.340129680E+02
 -0.339879597E+02
 -0.339629514E+02
 -0.339379431E+02
 -0.339129347E+02
 -0.338879264E+02
 -0.338629181E+02
 -0.338379098E+02
 -0.338129015E+02
 -0.337878932E+02
 -0.337628849E+02
 -0.337378766E+02
 -0.337128683E+02
 -0.336878600E+02
 -0.336628517E+02
 -0.336378433E+02
 -0.336128350E+02
 -0.335878267E+02
 -0.335628184E+02
 -0.335378101E+02
 -0.335128018E+02
 -0.334877935E+02
 -0.334627852E+02
 -0.334377769E+02
 -0.334127686E+02
 -0.333877602E+02
 -0.333627519E+02
 -0.333377436E+02
 -0.333127353E+02
 -0.332877270E+02
 -0.332627187E+02
 -0.332377104E+02
 -0.332127021E+02
 -0.331876938E+02
 -0.331626855E+02
 -0.331376772E+02
 -0.331126688E+02
 -0.330876605E+02
 -0.330626522E+02
 -0.330376439E+02
 -0.330126356E+02
 -0.329876273E+02
 -0.329626190E+02
 -0.329376107E+02
 -0.329126024E+02
 -0.328875941E+02
 -0.328625858E+02
 -0.328375774E+02
 -0.328125691E+02
 -0.327875608E+02
 -0.327625525E+02
 -0.327375442E+02
 -0.327125359E+02
 -0.326875276E+02
 -0.326625193E+02
 -0.326375110E+02
 -0.326125027E+02
 -0.325874943E+02
 -0.325624860E+02
 -0.325374777E+02
 -0.325124694E+02
 -0.324874611E+02
 -0.324624528E+02
 -0.324374445E+02
 -0.324124362E+02
 -0.323874279E+02
 -0.323624196E+02
 -0.323374113E+02
 -0.323124029E+02
 -0.322873946E+02
 -0.322623863E+02
 -0.322373780E+02
 -0.322123697E+02
 -0.321873614E+02
 -0.321623531E+02
 -0.321373448E+02
 -0.321123365E+02
 -0.320873282E+02
 -0.320623199E+02
 -0.320373115E+02
 -0.320123032E+02
 -0.319872949E+02
 -0.319622866E+02
 -0.319372783E+02
 -0.319122700E+02
 -0.318872617E+02
 -0.318622534E+02
 -0.318372451E+02
 -0.318122368E+02
 -0.317872284E+02
 -0.317622201E+02
 -0.317372118E+02
 -0.317122035E+02
 -0.316871952E+02
 -0.316621869E+02
 -0.316371786E+02
 -0.316121703E+02
 -0.315871620E+02
 -0.315621537E+02
 -0.315371454E+02
 -0.315121370E+02
 -0.314871287E+02
 -0.314621204E+02
 -0.314371121E+02
 -0.314121038E+02
 -0.313870955E+02
 -0.313620872E+02
 -0.313370789E+02
 -0.313120706E+02
 -0.312870623E+02
 -0.312620540E+02
 -0.312370456E+02
 -0.312120373E+02
 -0.311870290E+02
 -0.311620207E+02
 -0.311370124E+02
 -0.311120041E+02
 -0.310869958E+02
 -0.310619875E+02
 -0.310369792E+02
 -0.310119709E+02
 -0.309869625E+02
 -0.309619542E+02
 -0.309369459E+02
 -0.309119376E+02
 -0.308869293E+02
 -0.308619210E+02
 -0.308369127E+02
 -0.308119044E+02
 -0.307868961E+02
 -0.307618878E+02
 -0.307368795E+02
 -0.307118711E+02
 -0.306868628E+02
 -0.306618545E+02
 -0.306368462E+02
 -0.306118379E+02
 -0.305868296E+02
 -0.305618213E+02
 -0.305368130E+02
 -0.305118047E+02
 -0.304867964E+02
 -0.304617881E+02
 -0.304367797E+02
 -0.304117714E+02
 -0.303867631E+02
 -0.303617548E+02
 -0.303367465E+02
 -0.303117382E+02
 -0.302867299E+02
 -0.302617216E+02
 -0.302367133E+02
 -0.302117050E+02
 -0.301866966E+02
 -0.301616883E+02
 -0.301366800E+02
 -0.301116717E+02
 -0.300866634E+02
 -0.300616551E+02
 -0.300366468E+02
 -0.300116385E+02
 -0.299866302E+02
 -0.299616219E+02
 -0.299366136E+02
 -0.299116052E+02
 -0.298865969E+02
 -0.298615886E+02
 -0.298365803E+02
 -0.298115720E+02
 -0.297865637E+02
 -0.297615554E+02
 -0.297365471E+02
 -0.297115388E+02
 -0.296865305E+02
 -0.296615222E+02
 -0.296365138E+02
 -0.296115055E+02
 -0.295864972E+02
 -0.295614889E+02
 -0.295364806E+02
 -0.295114723E+02
 -0.294864640E+02
 -0.294614557E+02
 -0.294364474E+02
 -0.294114391E+02
 -0.293864307E+02
 -0.293614224E+02
 -0.293364141E+02
 -0.293114058E+02
 -0.292863975E+02
 -0.292613892E+02
 -0.292363809E+02
 -0.292113726E+02
 -0.291863643E+02
 -0.291613560E+02
 -0.291363477E+02
 -0.291113393E+02
 -0.290863310E+02
 -0.290613227E+02
 -0.290363144E+02
 -0.290113061E+02
 -0.289862978E+02
 -0.289612895E+02
 -0.289362812E+02
 -0.289112729E+02
 -0.288862646E+02
 -0.288612562E+02
 -0.288362479E+02
 -0.288112396E+02
 -0.287862313E+02
 -0.287612230E+02
 -0.287362147E+02
 -0.287112064E+02
 -0.286861981E+02
 -0.286611898E+02
 -0.286361815E+02
 -0.286111732E+02
 -0.285861648E+02
 -0.285611565E+02
 -0.285361482E+02