<pdos>
<nspin>1</nspin>
<norbitals>72</norbitals>
<fermi_energy units="eV"> -0.552598577E+01</fermi_energy>
<energy_values units="eV">
 -0.699999252E+02
 -0.699699152E+02
 -0.699399052E+02
 -0.699098953E+02
 -0.698798853E+02
 -0.698498753E+02
 -0.698198654E+02
 -0.697898554E+02
 -0.697598454E+02
 -0.697298354E+02
 -0.696998255E+02
 -0.696698155E+02
 -0.696398055E+02
 -0.696097956E+02
 -0.695797856E+02
 -0.695497756E+02
 -0.695197656E+02
 -0.694897557E+02
 -0.694597457E+02
 -0.694297357E+02
 -0.693997258E+02
 -0.693697158E+02
 -0.693397058E+02
 -0.693096958E+02
 -0.692796859E+02
 -0.692496759E+02
 -0.692196659E+02
 -0.691896560E+02
 -0.691596460E+02
 -0.691296360E+02
 -0.690996260E+02
 -0.690696161E+02
 -0.690396061E+02
 -0.690095961E+02
 -0.689795862E+02
 -0.689495762E+02
 -0.689195662E+02
 -0.688895563E+02
 -0.688595463E+02
 -0.688295363E+02
 -0.687995263E+02
 -0.687695164E+02
 -0.687395064E+02
 -0.687094964E+02
 -0.686794865E+02
 -0.686494765E+02
 -0.686194665E+02
 -0.685894565E+02
 -0.685594466E+02
 -0.685294366E+02
 -0.684994266E+02
 -0.684694167E+02
 -0.684394067E+02
 -0.684093967E+02
 -0.683793867E+02
 -0.683493768E+02
 -0.683193668E+02
 -0.682893568E+02
 -0.682593469E+02
 -0.682293369E+02
 -0.681993269E+02
 -0.681693169E+02
 -0.681393070E+02
 -0.681092970E+02
 -0.680792870E+02
 -0.680492771E+02
 -0.680192671E+02
 -0.679892571E+02
 -0.679592471E+02
 -0.679292372E+02
 -0.678992272E+02
 -0.678692172E+02
 -0.678392073E+02
 -0.678091973E+02
 -0.677791873E+02
 -0.677491773E+02
 -0.677191674E+02
 -0.676891574E+02
 -0.676591474E+02
 -0.676291375E+02
 -0.675991275E+02
 -0.675691175E+02
 -0.675391075E+02
 -0.675090976E+02
 -0.674790876E+02
 -0.674490776E+02
 -0.674190677E+02
 -0.673890577E+02
 -0.673590477E+02
 -0.673290377E+02
 -0.672990278E+02
 -0.672690178E+02
 -0.672390078E+02
 -0.672089979E+02
 -0.671789879E+02
 -0.671489779E+02
 -0.671189679E+02
 -0.670889580E+02
 -0.670589480E+02
 -0.670289380E+02
 -0.669989281E+02
 -0.669689181E+02
 -0.669389081E+02
 -0.669088981E+02
 -0.668788882E+02
 -0.668488782E+02
 -0.668188682E+02
 -0.667888583E+02
 -0.667588483E+02
 -0.667288383E+02
 -0.666988283E+02
 -0.666688184E+02
 -0.666388084E+02
 -0.666087984E+02
 -0.665787885E+02
 -0.665487785E+02
 -0.665187685E+02
 -0.664887585E+02
 -0.664587486E+02
 -0.664287386E+02
 -0.663987286E+02
 -0.663687187E+02
 -0.663387087E+02
 -0.663086987E+02
 -0.662786888E+02
 -0.662486788E+02
 -0.662186688E+02
 -0.661886588E+02
 -0.661586489E+02
 -0.661286389E+02
 -0.660986289E+02
 -0.660686190E+02
 -0.660386090E+02
 -0.660085990E+02
 -0.659785890E+02
 -0.659485791E+02
 -0.659185691E+02
 -0.658885591E+02
 -0.658585492E+02
 -0.658285392E+02
 -0.657985292E+02
 -0.657685192E+02
 -0.657385093E+02
 -0.657084993E+02
 -0.656784893E+02
 -0.656484794E+02
 -0.656184694E+02
 -0.655884594E+02
 -0.655584494E+02
 -0.655284395E+02
 -0.654984295E+02
 -0.654684195E+02
 -0.654384096E+02
 -0.654083996E+02
 -0.653783896E+02
 -0.653483796E+02
 -0.653183697E+02
 -0.652883597E+02
 -0.652583497E+02
 -0.652283398E+02
 -0.651983298E+02
 -0.651683198E+02
 -0.651383098E+02
 -0.651082999E+02
 -0.650782899E+02
 -0.650482799E+02
 -0.650182700E+02
 -0.649882600E+02
 -0.649582500E+02
 -0.649282400E+02
 -0.648982301E+02
 -0.648682201E+02
 -0.648382101E+02
 -0.648082002E+02
 -0.647781902E+02
 -0.647481802E+02
 -0.647181702E+02
 -0.646881603E+02
 -0.646581503E+02
 -0.646281403E+02
 -0.645981304E+02
 -0.645681204E+02
 -0.645381104E+02
 -0.645081004E+02
 -0.644780905E+02
 -0.644480805E+02
 -0.644180705E+02
 -0.643880606E+02
 -0.643580506E+02
 -0.643280406E+02
 -0.642980306E+02
 -0.642680207E+02
 -0.642380107E+02
 -0.642080007E+02
 -0.641779908E+02
 -0.641479808E+02
 -0.641179708E+02
 -0.640879608E+02
 -0.640579509E+02
 -0.640279409E+02
 -0.639979309E+02
 -0.639679210E+02
 -0.639379110E+02
 -0.639079010E+02
 -0.638778910E+02
 -0.638478811E+02
 -0.638178711E+02
 -0.637878611E+02
 -0.637578512E+02
 -0.637278412E+02
 -0.636978312E+02
 -0.636678213E+02
 -0.636378113E+02
 -0.636078013E+02
 -0.635777913E+02
 -0.635477814E+02
 -0.635177714E+02
 -0.634877614E+02
 -0.634577515E+02
 -0.634277415E+02
 -0.633977315E+02
 -0.633677215E+02
 -0.633377116E+02
 -0.633077016E+02
 -0.632776916E+02
 -0.632476817E+02
 -0.632176717E+02
 -0.631876617E+02
 -0.631576517E+02
 -0.631276418E+02
 -0.630976318E+02
 -0.630676218E+02
 -0.630376119E+02
 -0.630076019E+02
 -0.629775919E+02
 -0.629475819E+02
 -0.629175720E+02
 -0.628875620E+02
 -0.628575520E+02
 -0.628275421E+02
 -0.627975321E+02
 -0.627675221E+02
 -0.627375121E+02
 -0.627075022E+02
 -0.626774922E+02
 -0.626474822E+02
 -0.626174723E+02
 -0.625874623E+02
 -0.625574523E+02
 -0.625274423E+02
 -0.624974324E+02
 -0.624674224E+02
 -0.624374124E+02
 -0.624074025E+02
 -0.623773925E+02
 -0.623473825E+02
 -0.623173725E+02
 -0.622873626E+02
 -0.622573526E+02
 -0.622273426E+02
 -0.621973327E+02
 -0.621673227E+02
 -0.621373127E+02
 -0.621073027E+02
 -0.620772928E+02
 -0.620472828E+02
 -0.620172728E+02
 -0.619872629E+02
 -0.619572529E+02
 -0.619272429E+02
 -0.618972329E+02
 -0.618672230E+02
 -0.618372130E+02
 -0.618072030E+02
 -0.617771931E+02
 -0.617471831E+02
 -0.617171731E+02
 -0.616871631E+02
 -0.616571532E+02
 -0.616271432E+02
 -0.615971332E+02
 -0.615671233E+02
 -0.615371133E+02
 -0.615071033E+02
 -0.614770933E+02
 -0.614470834E+02
 -0.614170734E+02
 -0.613870634E+02
 -0.613570535E+02
 -0.613270435E+02
 -0.612970335E+02
 -0.612670235E+02
 -0.612370136E+02
 -0.612070036E+02
 -0.611769936E+02
 -0.611469837E+02
 -0.611169737E+02
 -0.610869637E+02
 -0.610569538E+02
 -0.610269438E+02
 -0.609969338E+02
 -0.609669238E+02
 -0.609369139E+02
 -0.609069039E+02
 -0.608768939E+02
 -0.608468840E+02
 -0.608168740E+02
 -0.607868640E+02
 -0.607568540E+02
 -0.607268441E+02
 -0.606968341E+02
 -0.606668241E+02
 -0.606368142E+02
 -0.606068042E+02
 -0.605767942E+02
 -0.605467842E+02
 -0.605167743E+02
 -0.604867643E+02
 -0.604567543E+02
 -0.604267444E+02
 -0.603967344E+02
 -0.603667244E+02
 -0.603367144E+02
 -0.603067045E+02
 -0.602766945E+02
 -0.602466845E+02
 -0.602166746E+02
 -0.601866646E+02
 -0.601566546E+02
 -0.601266446E+02
 -0.600966347E+02
 -0.600666247E+02
 -0.600366147E+02
 -0.600066048E+02
 -0.599765948E+02
 -0.599465848E+02
 -0.599165748E+02
 -0.598865649E+02
 -0.598565549E+02
 -0.598265449E+02
 -0.597965350E+02
 -0.597665250E+02
 -0.597365150E+02
 -0.597065050E+02
 -0.596764951E+02
 -0.596464851E+02
 -0.596164751E+02
 -0.595864652E+02
 -0.595564552E+02
 -0.595264452E+02
 -0.594964352E+02
 -0.594664253E+02
 -0.594364153E+02
 -0.594064053E+02
 -0.593763954E+02
 -0.593463854E+02
 -0.593163754E+02
 -0.592863654E+02
 -0.592563555E+02
 -0.592263455E+02
 -0.591963355E+02
 -0.591663256E+02
 -0.591363156E+02
 -0.591063056E+02
 -0.590762956E+02
 -0.590462857E+02
 -0.590162757E+02
 -0.589862657E+02
 -0.589562558E+02
 -0.589262458E+02
 -0.588962358E+02
 -0.588662258E+02
 -0.588362159E+02
 -0.588062059E+02
 -0.587761959E+02
 -0.587461860E+02
 -0.587161760E+02
 -0.586861660E+02
 -0.586561561E+02
 -0.586261461E+02
 -0.585961361E+02
 -0.585661261E+02
 -0.585361162E+02
 -0.585061062E+02
 -0.584760962E+02
 -0.584460863E+02
 -0.584160763E+02
 -0.583860663E+02
 -0.583560563E+02
 -0.583260464E+02
 -0.582960364E+02
 -0.582660264E+02
 -0.582360165E+02
 -0.582060065E+02
 -0.581759965E+02
 -0.581459865E+02
 -0.581159766E+02
 -0.580859666E+02
 -0.580559566E+02
 -0.580259467E+02
 -0.579959367E+02
 -0.579659267E+02
 -0.579359167E+02
 -0.579059068E+02
 -0.578758968E+02
 -0.578458868E+02
 -0.578158769E+02
 -0.577858669E+02
 -0.577558569E+02
 -0.577258469E+02
 -0.576958370E+02
 -0.576658270E+02
 -0.576358170E+02
 -0.576058071E+02
 -0.575757971E+02
 -0.575457871E+02
 -0.575157771E+02
 -0.574857672E+02
 -0.574557572E+02
 -0.574257472E+02
 -0.573957373E+02
 -0.573657273E+02
 -0.573357173E+02
 -0.573057073E+02
 -0.572756974E+02
 -0.572456874E+02
 -0.572156774E+02
 -0.571856675E+02
 -0.571556575E+02
 -0.571256475E+02
 -0.570956375E+02
 -0.570656276E+02
 -0.570356176E+02
 -0.570056076E+02
 -0.569755977E+02
 -0.569455877E+02
 -0.569155777E+02
 -0.568855677E+02
 -0.568555578E+02
 -0.568255478E+02
 -0.567955378E+02
 -0.567655279E+02
 -0.567355179E+02
 -0.567055079E+02
 -0.566754979E+02
 -0.566454880E+02
 -0.566154780E+02
 -0.565854680E+02
 -0.565554581E+02
 -0.565254481E+02
 -0.564954381E+02
 -0.564654281E+02
 -0.564354182E+02
 -0.564054082E+02
 -0.563753982E+02
 -0.563453883E+02
 -0.563153783E+02
 -0.562853683E+02
 -0.562553583E+02
 -0.562253484E+02
 -0.561953384E+02
 -0.561653284E+02
 -0.561353185E+02
 -0.561053085E+02
 -0.560752985E+02
 -0.560452886E+02
 -0.560152786E+02
 -0.559852686E+02
 -0.559552586E+02
 -0.559252487E+02
 -0.558952387E+02
 -0.558652287E+02
 -0.558352188E+02
 -0.558052088E+02
 -0.557751988E+02
 -0.557451888E+02
 -0.557151789E+02
 -0.556851689E+02
 -0.556551589E+02
 -0.556251490E+02
 -0.555951390E+02
 -0.555651290E+02
 -0.555351190E+02
 -0.555051091E+02
 -0.554750991E+02
 -0.554450891E+02
 -0.554150792E+02
 -0.553850692E+02
 -0.553550592E+02
 -0.553250492E+02
 -0.552950393E+02
 -0.552650293E+02
 -0.552350193E+02
 -0.552050094E+02
 -0.551749994E+02
 -0.551449894E+02
 -0.551149794E+02
 -0.550849695E+02
 -0.550549595E+02
 -0.550249495E+02
 -0.549949396E+02
 -0.549649296E+02
 -0.549349196E+02
 -0.549049096E+02
 -0.548748997E+02
 -0.548448897E+02
 -0.548148797E+02
 -0.547848698E+02
 -0.547548598E+02
 -0.547248498E+02
 -0.546948398E+02
 -0.546648299E+02
 -0.546348199E+02
 -0.546048099E+02
 -0.545748000E+02
 -0.545447900E+02
 -0.545147800E+02
 -0.544847700E+02
 -0.544547601E+02
 -0.544247501E+02
 -0.543947401E+02
 -0.543647302E+02
 -0.543347202E+02
 -0.543047102E+02
 -0.542747002E+02
 -0.542446903E+02
 -0.542146803E+02
 -0.541846703E+02
 -0.541546604E+02
 -0.541246504E+02
 -0.540946404E+02
 -0.540646304E+02
 -0.540346205E+02
 -0.540046105E+02
 -0.539746005E+02
 -0.539445906E+02
 -0.539145806E+02
 -0.538845706E+02
 -0.538545606E+02
 -0.538245507E+02
 -0.537945407E+02
 -0.537645307E+02
 -0.537345208E+02
 -0.537045108E+02
 -0.536745008E+02
 -0.536444908E+02
 -0.536144809E+02
 -0.535844709E+02
 -0.535544609E+02
 -0.535244510E+02
 -0.534944410E+02
 -0.534644310E+02
 -0.534344211E+02
 -0.534044111E+02
 -0.533744011E+02
 -0.533443911E+02
 -0.533143812E+02
 -0.532843712E+02
 -0.532543612E+02
 -0.532243513E+02
 -0.531943413E+02
 -0.531643313E+02
 -0.531343213E+02
 -0.531043114E+02
 -0.530743014E+02
 -0.530442914E+02
 -0.530142815E+02
 -0.529842715E+02
 -0.529542615E+02
 -0.529242515E+02
 -0.528942416E+02
 -0.528642316E+02
 -0.528342216E+02
 -0.528042117E+02
 -0.527742017E+02
 -0.527441917E+02
 -0.527141817E+02
 -0.526841718E+02
 -0.526541618E+02
 -0.526241518E+02
 -0.525941419E+02
 -0.525641319E+02
 -0.525341219E+02
 -0.525041119E+02
 -0.524741020E+02
 -0.524440920E+02
 -0.524140820E+02
 -0.523840721E+02
 -0.523540621E+02
 -0.523240521E+02
 -0.522940421E+02
 -0.522640322E+02
 -0.522340222E+02
 -0.522040122E+02
 -0.521740023E+02
 -0.521439923E+02
 -0.521139823E+02
 -0.520839723E+02
 -0.520539624E+02
 -0.520239524E+02
 -0.519939424E+02
 -0.519639325E+02
 -0.519339225E+02
 -0.519039125E+02
 -0.518739025E+02
 -0.518438926E+02
 -0.518138826E+02
 -0.517838726E+02
 -0.517538627E+02
 -0.517238527E+02
 -0.516938427E+02
 -0.516638327E+02
 -0.516338228E+02
 -0.516038128E+02
 -0.515738028E+02
 -0.515437929E+02
 -0.515137829E+02
 -0.514837729E+02
 -0.514537629E+02
 -0.514237530E+02
 -0.513937430E+02
 -0.513637330E+02
 -0.513337231E+02
 -0.513037131E+02
 -0.512737031E+02
 -0.512436931E+02
 -0.512136832E+02
 -0.511836732E+02
 -0.511536632E+02
 -0.511236533E+02
 -0.510936433E+02
 -0.510636333E+02
 -0.510336233E+02
 -0.510036134E+02
 -0.509736034E+02
 -0.509435934E+02
 -0.509135835E+02
 -0.508835735E+02
 -0.508535635E+02
 -0.508235536E+02
 -0.507935436E+02
 -0.507635336E+02
 -0.507335236E+02
 -0.507035137E+02
 -0.506735037E+02
 -0.506434937E+02
 -0.506134838E+02
 -0.505834738E+02
 -0.505534638E+02
 -0.505234538E+02
 -0.504934439E+02
 -0.504634339E+02
 -0.504334239E+02
 -0.504034140E+02
 -0.503734040E+02
 -0.503433940E+02
 -0.503133840E+02
 -0.502833741E+02
 -0.502533641E+02
 -0.502233541E+02
 -0.501933442E+02
 -0.501633342E+02
 -0.501333242E+02
 -0.501033142E+02
 -0.500733043E+02
 -0.500432943E+02
 -0.500132843E+02
 -0.499832744E+02
 -0.499532644E+02
 -0.499232544E+02
 -0.498932444E+02
 -0.498632345E+02
 -0.498332245E+02
 -0.498032145E+02
 -0.497732046E+02
 -0.497431946E+02
 -0.497131846E+02
 -0.496831746E+02
 -0.496531647E+02
 -0.496231547E+02
 -0.495931447E+02
 -0.495631348E+02
 -0.495331248E+02
 -0.495031148E+02
 -0.494731048E+02
 -0.494430949E+02
 -0.494130849E+02
 -0.493830749E+02
 -0.493530650E+02
 -0.493230550E+02
 -0.492930450E+02
 -0.492630350E+02
 -0.492330251E+02
 -0.492030151E+02
 -0.491730051E+02
 -0.491429952E+02
 -0.491129852E+02
 -0.490829752E+02
 -0.490529652E+02
 -0.490229553E+02
 -0.489929453E+02
 -0.489629353E+02
 -0.489329254E+02
 -0.489029154E+02
 -0.488729054E+02
 -0.488428954E+02
 -0.488128855E+02
 -0.487828755E+02
 -0.487528655E+02
 -0.487228556E+02
 -0.486928456E+02
 -0.486628356E+02
 -0.486328256E+02
 -0.486028157E+02
 -0.485728057E+02
 -0.485427957E+02
 -0.485127858E+02
 -0.484827758E+02
 -0.484527658E+02
 -0.484227559E+02
 -0.483927459E+02
 -0.483627359E+02
 -0.483327259E+02
 -0.483027160E+02
 -0.482727060E+02
 -0.482426960E+02
 -0.482126861E+02
 -0.481826761E+02
 -0.481526661E+02
 -0.481226561E+02
 -0.480926462E+02
 -0.480626362E+02
 -0.480326262E+02
 -0.480026163E+02
 -0.479726063E+02
 -0.479425963E+02
 -0.479125863E+02
 -0.478825764E+02
 -0.478525664E+02
 -0.478225564E+02
 -0.477925465E+02
 -0.477625365E+02
 -0.477325265E+02
 -0.477025165E+02
 -0.476725066E+02
 -0.476424966E+02
 -0.476124866E+02
 -0.475824767E+02
 -0.475524667E+02
 -0.475224567E+02
 -0.474924467E+02
 -0.474624368E+02
 -0.474324268E+02
 -0.474024168E+02
 -0.473724069E+02
 -0.473423969E+02
 -0.473123869E+02
 -0.472823769E+02
 -0.472523670E+02
 -0.472223570E+02
 -0.471923470E+02
 -0.471623371E+02
 -0.471323271E+02
 -0.471023171E+02
 -0.470723071E+02
 -0.470422972E+02
 -0.470122872E+02
 -0.469822772E+02
 -0.469522673E+02
 -0.469222573E+02
 -0.468922473E+02
 -0.468622373E+02
 -0.468322274E+02
 -0.468022174E+02
 -0.467722074E+02
 -0.467421975E+02
 -0.467121875E+02
 -0.466821775E+02
 -0.466521675E+02
 -0.466221576E+02
 -0.465921476E+02
 -0.465621376E+02
 -0.465321277E+02
 -0.465021177E+02
 -0.464721077E+02
 -0.464420977E+02
 -0.464120878E+02
 -0.463820778E+02
 -0.463520678E+02
 -0.463220579E+02
 -0.462920479E+02
 -0.462620379E+02
 -0.462320279E+02
 -0.462020180E+02
 -0.461720080E+02
 -0.461419980E+02
 -0.461119881E+02
 -0.460819781E+02
 -0.460519681E+02
 -0.460219581E+02
 -0.459919482E+02
 -0.459619382E+02
 -0.459319282E+02
 -0.459019183E+02
 -0.458719083E+02
 -0.458418983E+02
 -0.458118884E+02
 -0.457818784E+02
 -0.457518684E+02
 -0.457218584E+02
 -0.456918485E+02
 -0.456618385E+02
 -0.456318285E+02
 -0.456018186E+02
 -0.455718086E+02
 -0.455417986E+02
 -0.455117886E+02
 -0.454817787E+02
 -0.454517687E+02
 -0.454217587E+02
 -0.453917488E+02
 -0.453617388E+02
 -0.453317288E+02
 -0.453017188E+02
 -0.452717089E+02
 -0.452416989E+02
 -0.452116889E+02
 -0.451816790E+02
 -0.451516690E+02
 -0.451216590E+02
 -0.450916490E+02
 -0.450616391E+02
 -0.450316291E+02
 -0.450016191E+02
 -0.449716092E+02
 -0.449415992E+02
 -0.449115892E+02
 -0.448815792E+02
 -0.448515693E+02
 -0.448215593E+02
 -0.447915493E+02
 -0.447615394E+02
 -0.447315294E+02
 -0.447015194E+02
 -0.446715094E+02
 -0.446414995E+02
 -0.446114895E+02
 -0.445814795E+02
 -0.445514696E+02
 -0.445214596E+02
 -0.444914496E+02
 -0.444614396E+02
 -0.444314297E+02
 -0.444014197E+02
 -0.443714097E+02
 -0.443413998E+02
 -0.443113898E+02
 -0.442813798E+02
 -0.442513698E+02
 -0.442213599E+02
 -0.441913499E+02
 -0.441613399E+02
 -0.441313300E+02
 -0.441013200E+02
 -0.440713100E+02
 -0.440413000E+02
 -0.440112901E+02
 -0.439812801E+02
 -0.439512701E+02
 -0.439212602E+02
 -0.438912502E+02
 -0.438612402E+02
 -0.438312302E+02
 -0.438012203E+02
 -0.437712103E+02
 -0.437412003E+02
 -0.437111904E+02
 -0.436811804E+02
 -0.436511704E+02
 -0.436211604E+02
 -0.435911505E+02
 -0.435611405E+02
 -0.435311305E+02
 -0.435011206E+02
 -0.434711106E+02
 -0.434411006E+02
 -0.434110906E+02
 -0.433810807E+02
 -0.433510707E+02
 -0.433210607E+02
 -0.432910508E+02
 -0.432610408E+02
 -0.432310308E+02
 -0.432010209E+02
 -0.431710109E+02
 -0.431410009E+02
 -0.431109909E+02
 -0.430809810E+02
 -0.430509710E+02
 -0.430209610E+02
 -0.429909511E+02
 -0.429609411E+02
 -0.429309311E+02
 -0.429009211E+02
 -0.428709112E+02
 -0.428409012E+02
 -0.428108912E+02
 -0.427808813E+02
 -0.427508713E+02
 -0.427208613E+02
 -0.426908513E+02
 -0.426608414E+02
 -0.426308314E+02
 -0.426008214E+02
 -0.425708115E+02
 -0.425408015E+02
 -0.425107915E+02
 -0.424807815E+02
 -0.424507716E+02
 -0.424207616E+02
 -0.423907516E+02
 -0.423607417E+02
 -0.423307317E+02
 -0.423007217E+02
 -0.422707117E+02
 -0.422407018E+02
 -0.422106918E+02
 -0.421806818E+02
 -0.421506719E+02
 -0.421206619E+02
 -0.420906519E+02
 -0.420606419E+02
 -0.420306320E+02
 -0.420006220E+02
 -0.419706120E+02
 -0.419406021E+02
 -0.419105921E+02
 -0.418805821E+02
 -0.418505721E+02
 -0.418205622E+02
 -0.417905522E+02
 -0.417605422E+02
 -0.417305323E+02
 -0.417005223E+02
 -0.416705123E+02
 -0.416405023E+02
 -0.416104924E+02
 -0.415804824E+02
 -0.415504724E+02
 -0.415204625E+02
 -0.414904525E+02
 -0.414604425E+02
 -0.414304325E+02
 -0.414004226E+02
 -0.413704126E+02
 -0.413404026E+02
 -0.413103927E+02
 -0.412803827E+02
 -0.412503727E+02
 -0.412203627E+02
 -0.411903528E+02
 -0.411603428E+02
 -0.411303328E+02
 -0.411003229E+02
 -0.410703129E+02
 -0.410403029E+02
 -0.410102929E+02
 -0.409802830E+02
 -0.409502730E+02
 -0.409202630E+02
 -0.408902531E+02
 -0.408602431E+02
 -0.408302331E+02
 -0.408002231E+02
 -0.407702132E+02
 -0.407402032E+02
 -0.407101932E+02
 -0.406801833E+02
 -0.406501733E+02
 -0.406201633E+02
 -0.405901534E+02
 -0.405601434E+02
 -0.405301334E+02
 -0.405001234E+02
 -0.404701135E+02
 -0.404401035E+02
 -0.404100935E+02
 -0.403800836E+02
 -0.403500736E+02
 -0.403200636E+02
 -0.402900536E+02
 -0.402600437E+02
 -0.402300337E+02
 -0.402000237E+02
 -0.401700138E+02
 -0.401400038E+02
 -0.401099938E+02
 -0.400799838E+02
 -0.400499739E+02
 -0.400199639E+02
 -0.399899539E+02
 -0.399599440E+02
 -0.399299340E+02
 -0.398999240E+02
 -0.398699140E+02
 -0.398399041E+02
 -0.398098941E+02
 -0.397798841E+02
 -0.397498742E+02
 -0.397198642E+02
 -0.396898542E+02
 -0.396598442E+02
 -0.396298343E+02
 -0.395998243E+02
 -0.395698143E+02
 -0.395398044E+02
 -0.395097944E+02
 -0.394797844E+02
 -0.394497744E+02
 -0.394197645E+02
 -0.393897545E+02
 -0.393597445E+02
 -0.393297346E+02
 -0.392997246E+02
 -0.392697146E+02
 -0.392397046E+02
 -0.392096947E+02
 -0.391796847E+02
 -0.391496747E+02
 -0.391196648E+02
 -0.390896548E+02
 -0.390596448E+02
 -0.390296348E+02
 -0.389996249E+02
 -0.389696149E+02
 -0.389396049E+02
 -0.389095950E+02
 -0.388795850E+02
 -0.388495750E+02
 -0.388195650E+02
 -0.387895551E+02
 -0.387595451E+02
 -0.387295351E+02
 -0.386995252E+02
 -0.386695152E+02
 -0.386395052E+02
 -0.386094952E+02
 -0.385794853E+02
 -0.385494753E+02
 -0.385194653E+02
 -0.384894554E+02
 -0.384594454E+02
 -0.384294354E+02
 -0.383994254E+02
 -0.383694155E+02
 -0.383394055E+02
 -0.383093955E+02
 -0.382793856E+02
 -0.382493756E+02
 -0.382193656E+02
 -0.381893557E+02
 -0.381593457E+02
 -0.381293357E+02
 -0.380993257E+02
 -0.380693158E+02
 -0.380393058E+02
 -0.380092958E+02
 -0.379792859E+02
 -0.379492759E+02
 -0.379192659E+02
 -0.378892559E+02
 -0.378592460E+02
 -0.378292360E+02
 -0.377992260E+02
 -0.377692161E+02
 -0.377392061E+02
 -0.377091961E+02
 -0.376791861E+02
 -0.376491762E+02
 -0.376191662E+02
 -0.375891562E+02
 -0.375591463E+02
 -0.375291363E+02
 -0.374991263E+02
 -0.374691163E+02
 -0.374391064E+02
 -0.374090964E+02
 -0.373790864E+02
 -0.373490765E+02
 -0.373190665E+02
 -0.372890565E+02
 -0.372590465E+02
 -0.372290366E+02
 -0.371990266E+02
 -0.371690166E+02
 -0.371390067E+02
 -0.371089967E+02
 -0.370789867E+02
 -0.370489767E+02
 -0.370189668E+02
 -0.369889568E+02
 -0.369589468E+02
 -0.369289369E+02
 -0.368989269E+02
 -0.368689169E+02
 -0.368389069E+02
 -0.368088970E+02
 -0.367788870E+02
 -0.367488770E+02
 -0.367188671E+02
 -0.366888571E+02
 -0.366588471E+02
 -0.366288371E+02
 -0.365988272E+02
 -0.365688172E+02
 -0.365388072E+02
 -0.365087973E+02
 -0.364787873E+02
 -0.364487773E+02
 -0.364187673E+02
 -0.363887574E+02
 -0.363587474E+02
 -0.363287374E+02
 -0.362987275E+02
 -0.362687175E+02
 -0.362387075E+02
 -0.362086975E+02
 -0.361786876E+02
 -0.361486776E+02
 -0.361186676E+02
 -0.360886577E+02
 -0.360586477E+02
 -0.360286377E+02
 -0.359986277E+02
 -0.359686178E+02
 -0.359386078E+02
 -0.359085978E+02
 -0.358785879E+02
 -0.358485779E+02
 -0.358185679E+02
 -0.357885579E+02
 -0.357585480E+02
 -0.357285380E+02
 -0.356985280E+02
 -0.356685181E+02
 -0.356385081E+02
 -0.356084981E+02
 -0.355784882E+02
 -0.355484782E+02
 -0.355184682E+02
 -0.354884582E+02
 -0.354584483E+02
 -0.354284383E+02
 -0.353984283E+02
 -0.353684184E+02
 -0.353384084E+02
 -0.353083984E+02
 -0.352783884E+02
 -0.352483785E+02
 -0.352183685E+02
 -0.351883585E+02
 -0.351583486E+02
 -0.351283386E+02
 -0.350983286E+02
 -0.350683186E+02
 -0.350383087E+02
 -0.350082987E+02
 -0.349782887E+02
 -0.349482788E+02
 -0.349182688E+02
 -0.348882588E+02
 -0.348582488E+02
 -0.348282389E+02
 -0.347982289E+02
 -0.347682189E+02
 -0.347382090E+02
 -0.347081990E+02
 -0.346781890E+02
 -0.346481790E+02
 -0.346181691E+02
 -0.345881591E+02
 -0.345581491E+02
 -0.345281392E+02
 -0.344981292E+02
 -0.344681192E+02
 -0.344381092E+02
 -0.344080993E+02
 -0.343780893E+02
 -0.343480793E+02
 -0.343180694E+02
 -0.342880594E+02
 -0.342580494E+02
 -0.342280394E+02
 -0.341980295E+02
 -0.341680195E+02
 -0.341380095E+02
 -0.341079996E+02
 -0.340779896E+02
 -0.340479796E+02
 -0.340179696E+02
 -0.339879597E+02
 -0.339579497E+02
 -0.339279397E+02
 -0.338979298E+02
 -0.338679198E+02
 -0.338379098E+02
 -0.338078998E+02
 -0.337778899E+02
 -0.337478799E+02
 -0.337178699E+02
 -0.336878600E+02
 -0.336578500E+02
 -0.336278400E+02
 -0.335978300E+02
 -0.335678201E+02
 -0.335378101E+02
 -0.335078001E+02
 -0.334777902E+02
 -0.334477802E+02
 -0.334177702E+02
 -0.333877602E+02
 -0.333577503E+02
 -0.333277403E+02
 -0.332977303E+02
 -0.332677204E+02
 -0.332377104E+02
 -0.332077004E+02
 -0.331776904E+02
 -0.331476805E+02
 -0.331176705E+02
 -0.330876605E+02
 -0.330576506E+02
 -0.330276406E+02
 -0.329976306E+02
 -0.329676207E+02
 -0.329376107E+02
 -0.329076007E+02
 -0.328775907E+02
 -0.328475808E+02
 -0.328175708E+02
 -0.327875608E+02
 -0.327575509E+02
 -0.327275409E+02
 -0.326975309E+02
 -0.326675209E+02
 -0.326375110E+02
 -0.326075010E+02
 -0.325774910E+02
 -0.325474811E+02
 -0.325174711E+02
 -0.324874611E+02
 -0.324574511E+02
 -0.324274412E+02
 -0.323974312E+02
 -0.323674212E+02
 -0.323374113E+02
 -0.323074013E+02
 -0.322773913E+02
 -0.322473813E+02
 -0.322173714E+02
 -0.321873614E+02
 -0.321573514E+02
 -0.321273415E+02
 -0.320973315E+02
 -0.320673215E+02
 -0.320373115E+02
 -0.320073016E+02
 -0.319772916E+02
 -0.319472816E+02
 -0.319172717E+02
 -0.318872617E+02
 -0.318572517E+02
 -0.318272417E+02
 -0.317972318E+02
 -0.317672218E+02
 -0.317372118E+02
 -0.317072019E+02
 -0.316771919E+02
 -0.316471819E+02
 -0.316171719E+02
 -0.315871620E+02
 -0.315571520E+02
 -0.315271420E+02
 -0.314971321E+02
 -0.314671221E+02
 -0.314371121E+02
 -0.314071021E+02
 -0.313770922E+02
 -0.313470822E+02
 -0.313170722E+02
 -0.312870623E+02
 -0.312570523E+02
 -0.312270423E+02
 -0.311970323E+02
 -0.311670224E+02
 -0.311370124E+02
 -0.311070024E+02
 -0.310769925E+02
 -0.310469825E+02
 -0.310169725E+02
 -0.309869625E+02
 -0.309569526E+02
 -0.309269426E+02
 -0.308969326E+02
 -0.308669227E+02
 -0.308369127E+02
 -0.308069027E+02
 -0.307768927E+02
 -0.307468828E+02
 -0.307168728E+02
 -0.306868628E+02
 -0.306568529E+02
 -0.306268429E+02
 -0.305968329E+02
 -0.305668229E+02
 -0.305368130E+02
 -0.305068030E+02
 -0.304767930E+02
 -0.304467831E+02
 -0.304167731E+02
 -0.303867631E+02
 -0.303567532E+02
 -0.303267432E+02
 -0.302967332E+02
 -0.302667232E+02
 -0.302367133E+02
 -0.302067033E+02
 -0.301766933E+02
 -0.301466834E+02
 -0.301166734E+02
 -0.300866634E+02
 -0.300566534E+02
 -0.300266435E+02
 -0.299966335E+02
 -0.299666235E+02
 -0.299366136E+02
 -0.299066036E+02
 -0.298765936E+02
 -0.298465836E+02
 -0.298165737E+02
 -0.297865637E+02
 -0.297565537E+02
 -0.297265438E+02
 -0.296965338E+02
 -0.296665238E+02
 -0.296365138E+02
 -0.296065039E+02
 -0.295764939E+02
 -0.295464839E+02
 -0.295164740E+02
 -0.294864640E+02
 -0.294564540E+02
 -0.294264440E+02
 -0.293964341E+02
 -0.293664241E+02
 -0.293364141E+02
 -0.293064042E+02
 -0.292763942E+02
 -0.292463842E+02
 -0.292163742E+02
 -0.291863643E+02
 -0.291563543E+02
 -0.291263443E+02
 -0.290963344E+02
 -0.290663244E+02
 -0.290363144E+02
 -0.290063044E+02
 -0.289762945E+02
 -0.289462845E+02
 -0.289162745E+02
 -0.288862646E+02
 -0.288562546E+02
 -0.288262446E+02
 -0.287962346E+02
 -0.287662247E+02
 -0.287362147E+02
 -0.287062047E+02
 -0.286761948E+02
 -0.286461848E+02
 -0.286161748E+02
 -0.285861648E+02
 -0.285561549E+02
 -0.285261449E+02
 -0.284961349E+02
 -0.284661250E+02
 -0.284361150E+02
 -0.284061050E+02
 -0.283760950E+02
 -0.283460851E+02
 -0.283160751E+02
 -0.282860651E+02
 -0.282560552E+02
 -0.282260452E+02
 -0.281960352E+02
 -0.281660252E+02
 -0.281360153E+02
 -0.281060053E+02
 -0.280759953E+02
 -0.280459854E+02
 -0.280159754E+02
 -0.279859654E+02
 -0.279559555E+02
 -0.279259455E+02
 -0.278959355E+02
 -0.278659255E+02
 -0.278359156E+02
 -0.278059056E+02
 -0.277758956E+02
 -0.277458857E+02
 -0.277158757E+02
 -0.276858657E+02
 -0.276558557E+02
 -0.276258458E+02
 -0.275958358E+02
 -0.275658258E+02
 -0.275358159E+02
 -0.275058059E+02
 -0.274757959E+02
 -0.274457859E+02
 -0.274157760E+02
 -0.273857660E+02
 -0.273557560E+02
 -0.273257461E+02
 -0.272957361E+02
 -0.272657261E+02
 -0.272357161E+02
 -0.272057062E+02
 -0.271756962E+02
 -0.271456862E+02
 -0.271156763E+02
 -0.270856663E+02
 -0.270556563E+02
 -0.270256463E+02
 -0.269956364E+02
 -0.269656264E+02
 -0.269356164E+02
 -0.269056065E+02
 -0.268755965E+02
 -0.268455865E+02
 -0.268155765E+02
 -0.267855666E+02
 -0.267555566E+02
 -0.267255466E+02
 -0.266955367E+02
 -0.266655267E+02
 -0.266355167E+02
 -0.266055067E+02
 -0.265754968E+02
 -0.265454868E+02
 -0.265154768E+02
 -0.264854669E+02
 -0.264554569E+02
 -0.264254469E+02
 -0.263954369E+02
 -0.263654270E+02
 -0.263354170E+02
 -0.263054070E+02
 -0.262753971E+02
 -0.262453871E+02
 -0.262153771E+02
 -0.261853671E+02
 -0.261553572E+02
 -0.261253472E+02
 -0.260953372E+02
 -0.260653273E+02
 -0.260353173E+02
 -0.260053073E+02
 -0.259752973E+02
 -0.259452874E+02
 -0.259152774E+02
 -0.258852674E+02
 -0.258552575E+02
 -0.258252475E+02
 -0.257952375E+02
 -0.257652275E+02
 -0.257352176E+02
 -0.257052076E+02
 -0.256751976E+02
 -0.256451877E+02
 -0.256151777E+02
 -0.255851677E+02
 -0.255551577E+02
 -0.255251478E+02
 -0.254951378E+02
 -0.254651278E+02
 -0.254351179E+02
 -0.254051079E+02
 -0.253750979E+02
 -0.253450880E+02
 -0.253150780E+02
 -0.252850680E+02
 -0.252550580E+02
 -0.252250481E+02
 -0.251950381E+02
 -0.251650281E+02
 -0.251350182E+02
 -0.251050082E+02
 -0.250749982E+02
 -0.250449882E+02
 -0.250149783E+02
 -0.249849683E+02
 -0.249549583E+02
 -0.249249484E+02
 -0.248949384E+02
 -0.248649284E+02
 -0.248349184E+02
 -0.248049085E+02
 -0.247748985E+02
 -0.247448885E+02
 -0.247148786E+02
 -0.246848686E+02
 -0.246548586E+02
 -0.246248486E+02
 -0.245948387E+02
 -0.245648287E+02
 -0.245348187E+02
 -0.245048088E+02
 -0.244747988E+02
 -0.244447888E+02
 -0.244147788E+02
 -0.243847689E+02
 -0.243547589E+02
 -0.243247489E+02
 -0.242947390E+02
 -0.242647290E+02
 -0.242347190E+02
 -0.242047090E+02
 -0.241746991E+02
 -0.241446891E+02
 -0.241146791E+02
 -0.240846692E+02
 -0.240546592E+02
 -0.240246492E+02
 -0.239946392E+02
 -0.239646293E+02
 -0.239346193E+02
 -0.239046093E+02
 -0.238745994E+02
 -0.238445894E+02
 -0.238145794E+02
 -0.237845694E+02
 -0.237545595E+02
 -0.237245495E+02
 -0.236945395E+02
 -0.236645296E+02
 -0.236345196E+02
 -0.236045096E+02
 -0.235744996E+02
 -0.235444897E+02
 -0.235144797E+02
 -0.234844697E+02
 -0.234544598E+02
 -0.234244498E+02
 -0.233944398E+02
 -0.233644298E+02
 -0.233344199E+02
 -0.233044099E+02
 -0.232743999E+02
 -0.232443900E+02
 -0.232143800E+02
 -0.231843700E+02
 -0.231543600E+02
 -0.231243501E+02
 -0.230943401E+02
 -0.230643301E+02
 -0.230343202E+02
 -0.230043102E+02
 -0.229743002E+02
 -0.229442902E+02
 -0.229142803E+02
 -0.228842703E+02
 -0.228542603E+02
 -0.228242504E+02
 -0.227942404E+02
 -0.227642304E+02
 -0.227342205E+02
 -0.227042105E+02
 -0.226742005E+02
 -0.226441905E+02
 -0.226141806E+02
 -0.225841706E+02
 -0.225541606E+02
 -0.225241507E+02
 -0.224941407E+02
 -0.224641307E+02
 -0.224341207E+02
 -0.224041108E+02
 -0.223741008E+02
 -0.223440908E+02
 -0.223140809E+02
 -0.222840709E+02
 -0.222540609E+02
 -0.222240509E+02
 -0.221940410E+02
 -0.221640310E+02
 -0.221340210E+02
 -0.221040111E+02
 -0.220740011E+02
 -0.220439911E+02
 -0.220139811E+02
 -0.219839712E+02
 -0.219539612E+02
 -0.219239512E+02
 -0.218939413E+02
 -0.218639313E+02
 -0.218339213E+02
 -0.218039113E+02
 -0.217739014E+02
 -0.217438914E+02
 -0.217138814E+02
 -0.216838715E+02
 -0.216538615E+02
 -0.216238515E+02
 -0.215938415E+02
 -0.215638316E+02
 -0.215338216E+02
 -0.215038116E+02
 -0.214738017E+02
 -0.214437917E+02
 -0.214137817E+02
 -0.213837717E+02
 -0.213537618E+02
 -0.213237518E+02
 -0.212937418E+02
 -0.212637319E+02
 -0.212337219E+02
 -0.212037119E+02
 -0.211737019E+02
 -0.211436920E+02
 -0.211136820E+02
 -0.210836720E+02
 -0.210536621E+02
 -0.210236521E+02
 -0.209936421E+02
 -0.209636321E+02
 -0.209336222E+02
 -0.209036122E+02
 -0.208736022E+02
 -0.208435923E+02
 -0.208135823E+02
 -0.207835723E+02
 -0.207535623E+02
 -0.207235524E+02
 -0.206935424E+02
 -0.206635324E+02
 -0.206335225E+02
 -0.206035125E+02
 -0.205735025E+02
 -0.205434925E+02
 -0.205134826E+02
 -0.204834726E+02
 -0.204534626E+02
 -0.204234527E+02
 -0.203934427E+02
 -0.203634327E+02
 -0.203334227E+02
 -0.203034128E+02
 -0.202734028E+02
 -0.202433928E+02