Siesta Version  : siesta-psml-R1--709-594
Architecture    : unknown
Compiler version: GNU Fortran (Ubuntu 7.4.0-1ubuntu1~18.04.1) 7.4.0
Compiler flags  : gfortran -O2 -fPIC -ftree-vectorize
PP flags        : -D__NO_PROC_POINTERS__ -DFC_HAVE_ABORT  -DSIESTA__DIAG_2STAGE
Libraries       : libsiestaLAPACK.a libsiestaBLAS.a
SERIAL version

* Running in serial mode
>> Start of run:   8-APR-2020  10:51:33

                           ***********************       
                           *  WELCOME TO SIESTA  *       
                           ***********************       

reinit: Reading from standard input
reinit: Dumped input in INPUT_TMP.06382
************************** Dump of input data file ****************************
SystemName      Calcium titanate (CaTiO3) cubic structure
#               Cubic phase
#               PBE-SOL functional
#               Theoretical lattice constant obtained for the Hamann pseudos
#               (taken from the pseudo-dojo web page)
#               Mesh Cutoff: 600 Ry
#               Monkhorst-Pack grid: 6 x 6 x 6 ; displaced 0.5 0.5 0.5
SystemLabel	CaTiO3
NumberOfSpecies	3
NumberOfAtoms	5
%block ChemicalSpeciesLabel
      1      20     Ca
      2      22     Ti
      3       8     O
%endblock ChemicalSpeciesLabel
%block PS.lmax
   Ca    3
   Ti    3
    O    3
%endblock PS.lmax
PAO.Basis  < CaTiO3basis.fdf
LatticeConstant       3.4657227 Ang
                                      #    cubic phase
%block LatticeVectors
  1.00  0.00  0.00
  0.00  1.00  0.00
  0.00  0.00  1.00
%endblock LatticeVectors
AtomicCoordinatesFormat	     Fractional
%block AtomicCoordinatesAndAtomicSpecies
  0.00  0.00  0.00       1      40.078      Ca
  0.50  0.50  0.50       2      47.867      Ti
  0.00  0.50  0.50       3      15.9994     O
  0.50  0.00  0.50       3      15.9994     O
  0.50  0.50  0.00       3      15.9994     O
%endblock AtomicCoordinatesAndAtomicSpecies
WriteCoorStep           .true.        #  Write the atomic coordinates to
                                      #     standard output at every
                                      #     MD time step or relaxation step.
%block kgrid_Monkhorst_Pack
   6  0  0  0.5
   0  6  0  0.5
   0  0  6  0.5
%endblock kgrid_Monkhorst_Pack
#
# DFT, Grid, SCF
#
%block XC.cocktail                  # Perdew-Burke-Ernzerhof SOL functional taken from the libxc library
2
GGA LIBXC-0116-GGA_X_PBE_SOL  1.0  0.0
GGA LIBXC-0133-GGA_C_PBE_SOL  0.0  1.0
%endblock XC.cocktail
MeshCutoff             600 Ry      # Defines the plane wave cutoff for the grid
DM.NumberPulay         3           # It controls the Pulay convergence
                                   #   accelerator.
DM.UseSaveDM           .true.      # Use the Density Matrix from the DM file
                                   #   if found
DM.Tolerance           1.d-4       # Tolerance in maximum difference
                                   # between input and output DM
MaxSCFIterations       100         # Maximum number of SCF Iterations
ElectronicTemperature  0.075 eV    # Electronic Temperature for the smearing
                                   #   of the Fermi-Dirac occupation function
SCF.MixAfterConvergence .false.    # Logical variable to indicate whether mixing
                                   #   is done in the last SCF cycle
                                   #   (after convergence has been achieved)
                                   #   or not.
                                   #   Not mixing after convergence improves
                                   #   the quality of the final Kohn-Sham
                                   #   energy and of the forces when mixing
                                   #   the DM.
#
# Molecular Dynamic or Relaxation variables
#
MD.TypeOfRun            cg          # Type of dynamics:
                                    #   - CG
                                    #   - Verlet
                                    #   - Nose
                                    #   - Parrinello-Rahman
                                    #   - Nose-Parrinello-Rahman
                                    #   - Anneal
                                    #   - FC
MD.VariableCell         .true.      # The lattice is relaxed together with
                                    # the atomic coordinates?
MD.NumCGsteps            20          # Number of CG steps for
                                    #   coordinate optimization
MD.MaxCGDispl           0.3 Bohr    # Maximum atomic displacement
                                    #   in one CG step
MD.MaxForceTol         0.01 eV/Ang  # Tolerance in the maximum
                                    #   atomic force
MD.MaxStressTol        0.0001 eV/Ang**3
                                    # Tolerance in the maximum
                                    #   stress in a MD.VariableCell CG optimi.
MD.UseSaveXV           .false.      # Instructs Siesta to read the
                                    #   atomic positions and velocities stored
                                    #   in file SystemLabel.XV by a
                                    #   previous run.
MD.UseSaveCG           .false.      # Instructs to read the conjugate-gradient
                                    #   hystory information stored in file
                                    #   SystemLabel.CG by a previous run.
#
# Plotting the band structure
#
BandLinesScale pi/a
%block BandLines
1   0.0 0.0 0.0 \Gamma              # Start at \Gamma
100 1.0 0.0 0.0 X                   # 100 points from \Gamma to X
100 1.0 1.0 0.0 M                   # 100 points from X to M
100 1.0 1.0 1.0 R                   # 100 points from M to R
173 0.0 0.0 0.0 \Gamma              # 173 points from R to \Gamma
141 0.0 1.0 1.0 M                   # 141 points from \Gamma to M
100 0.0 0.0 1.0 X                   # 100 points from M to X
141 1.0 1.0 1.0 R                   # 141 points from X to R
%endblock BandLines
#
# Plotting the Projected Density Of States
#
%block ProjectedDensityOfStates
  -70.00  20.00  0.150 3000  eV
%endblock ProjectedDensityOfStates
%PDOS.kgrid_Monkhorst_Pack
   120  0  0  0.5
    0 120  0  0.5
    0  0 120  0.5
%end PDOS.kgrid_Monkhorst_Pack
************************** End of input data file *****************************

reinit: -----------------------------------------------------------------------
reinit: System Name: Calcium titanate (CaTiO3) cubic structure
reinit: -----------------------------------------------------------------------
reinit: System Label: CaTiO3
reinit: -----------------------------------------------------------------------

xc:
xc:  Cocktail exchange-correlation functional:
xc:
xc: Number     Functional     Authors     Weight(Ex)   Weight(Ec)
xc:    1   GGA                   LIBXC-0116-GGA_X_PBE   1.000        0.000
xc:    2   GGA                   LIBXC-0133-GGA_C_PBE   0.000        1.000
xc:

initatom: Reading input for the pseudopotentials and atomic orbitals ----------
Species number:   1 Atomic number:   20 Label: Ca
Species number:   2 Atomic number:   22 Label: Ti
Species number:   3 Atomic number:    8 Label: O

Ground state valence configuration:   4s02

Reading pseudopotential from: Ca.psml

PSML file version: 1.1
Using libxc ids:  116 133
GGA--PBEsol XC_GGA_X_PBE_SOL--XC_GGA_C_PBE_SOL ps
 Using ATOM defaults for log grid...
PSML uuid: 3fe16a80-1d65-11e8-75e6-335877f7152c
Dumping pseudopotential information in formatted form in Ca.psdump
Ground state valence configuration:   4s02  3d02

Reading pseudopotential from: Ti.psml

PSML file version: 1.1
Using libxc ids:  116 133
GGA--PBEsol XC_GGA_X_PBE_SOL--XC_GGA_C_PBE_SOL ps
 Using ATOM defaults for log grid...
PSML uuid: 4b1d8b90-1d65-11e8-71dd-645aef4ba7d4
Dumping pseudopotential information in formatted form in Ti.psdump
Ground state valence configuration:   2s02  2p04

Reading pseudopotential from: O.psml

PSML file version: 1.1
Using libxc ids:  116 133
GGA--PBEsol XC_GGA_X_PBE_SOL--XC_GGA_C_PBE_SOL ps
 Using ATOM defaults for log grid...
PSML uuid: fa630a90-1d64-11e8-7ddc-64dedbfaf3ff
Dumping pseudopotential information in formatted form in O.psdump
Semicore shell(s) with  8 electrons included in the valence for
Ca
Semicore shell(s) with  8 electrons included in the valence for
Ti
relmxkb: Read Max KB Ang. Momentum=    3 for species Ca
relmxkb: Read Max KB Ang. Momentum=    3 for species Ti
relmxkb: Read Max KB Ang. Momentum=    3 for species O
Pseudopotential only contains V_ls up to l=2 -- lmxkb reset.
Pseudopotential only contains V_ls up to l=2 -- lmxkb reset.
Pseudopotential only contains V_ls up to l=2 -- lmxkb reset.

<basis_specs>
===============================================================================
Ca                   Z=  20    Mass=  40.080        Charge=-0.17090E-01
Lmxo=2 Lmxkb= 2    BasisType=split      Semic=T
L=0  Nsemic=1  Cnfigmx=4
          n=1  nzeta=1  polorb=0  (3s)
            splnorm:   0.15000    
               vcte:    62.189    
               rinn:    4.8192    
               qcoe:    0.0000    
               qyuk:    0.0000    
               qwid:   0.10000E-01
                rcs:    5.5305    
            lambdas:    1.0000    
          n=2  nzeta=2  polorb=0  (4s)
            splnorm:   0.15000    
               vcte:    181.85    
               rinn:    5.4983    
               qcoe:    0.0000    
               qyuk:    0.0000    
               qwid:   0.10000E-01
                rcs:    6.6166      5.1838    
            lambdas:    1.0000      1.0000    
L=1  Nsemic=1  Cnfigmx=4
          n=1  nzeta=1  polorb=0  (3p)
            splnorm:   0.15000    
               vcte:    43.485    
               rinn:    4.2885    
               qcoe:    0.0000    
               qyuk:    0.0000    
               qwid:   0.10000E-01
                rcs:    6.9894    
            lambdas:    1.0000    
          n=2  nzeta=1  polorb=0  (4p)
            splnorm:   0.15000    
               vcte:    136.69    
               rinn:    4.9908    
               qcoe:    0.0000    
               qyuk:    0.0000    
               qwid:   0.10000E-01
                rcs:    7.4225    
            lambdas:    1.0000    
L=2  Nsemic=0  Cnfigmx=3
          n=1  nzeta=1  polorb=0  (3d)
            splnorm:   0.15000    
               vcte:    82.574    
               rinn:    5.7791    
               qcoe:    0.0000    
               qyuk:    0.0000    
               qwid:   0.10000E-01
                rcs:    6.4171    
            lambdas:    1.0000    
-------------------------------------------------------------------------------
L=0  Nkbl=2  erefs: 0.17977+309 0.17977+309
L=1  Nkbl=2  erefs: 0.17977+309 0.17977+309
L=2  Nkbl=1  erefs: 0.17977+309
===============================================================================
</basis_specs>

atom: Called for Ca                    (Z =  20)

read_vps: Pseudopotential generation method:
read_vps: ONCVPSP-3.Hamann's oncvpsp                        
Total valence charge:   10.00000

read_vps: Pseudopotential includes a core correction:
read_vps: Pseudo-core for xc-correction

xc_check: Exchange-correlation functional:
xc_check: GGA LIBXC-0116-GGA_X_PBE
xc_check: WARNING: Pseudopotential generated with GGA PBEsol functional

xc_check: Exchange-correlation functional:
xc_check: GGA LIBXC-0133-GGA_C_PBE
xc_check: WARNING: Pseudopotential generated with GGA PBEsol functional
Got Vlocal (oncv-fit) from psml data
Choosing vlocal chloc cutoff:  2.905847
qtot up to nchloc:   10.00003822
atom: Maximum radius forchloc:    2.90585
atom: Maximum radius for r*vlocal+2*Zval:    2.90585
Reading KB projs from Ca psml data
Using scalar-relativistic projectors in PSML file

PSML: Kleinman-Bylander projectors: 
   l= 0   rc=  1.479470   Ekb= 20.109694
   l= 0   rc=  1.479470   Ekb=  1.947554
   l= 1   rc=  1.479470   Ekb=  5.997917
   l= 1   rc=  1.479470   Ekb=  0.916204
   l= 2   rc=  1.876112   Ekb= -6.894596
   l= 2   rc=  1.876112   Ekb= -2.183301

PSML: Total number of  Kleinman-Bylander projectors:  18
atom: -------------------------------------------------------------------------

atom: SANKEY-TYPE ORBITALS:
atom: Selected multiple-zeta basis: split     

atom: basis set generated (by rescaling the valence charge)
atom: for an anion of charge  -0.0171

SPLIT: Orbitals with angular momentum L= 0

SPLIT: Basis orbitals for state 3s

   izeta = 1
                 lambda =    1.000000
                     rc =    5.497235
                 energy =   -3.451482
                kinetic =    1.771210
    potential(screened) =   -5.222692
       potential(ionic) =  -16.719981

SPLIT: Basis orbitals for state 4s

   izeta = 1
                 lambda =    1.000000
                     rc =    6.714365
                 energy =   -0.201773
                kinetic =    0.805328
    potential(screened) =   -1.007101
       potential(ionic) =   -7.012605

   izeta = 2
                 rmatch =    5.229125
              splitnorm =    0.688190
                 energy =    0.120661
                kinetic =    1.451228
    potential(screened) =   -1.330567
       potential(ionic) =   -8.587740

SPLIT: Orbitals with angular momentum L= 1

SPLIT: Basis orbitals for state 3p

   izeta = 1
                 lambda =    1.000000
                     rc =    7.058624
                 energy =   -2.054329
                kinetic =    3.527882
    potential(screened) =   -5.582212
       potential(ionic) =  -16.655143

SPLIT: Basis orbitals for state 4p

   izeta = 1
                 lambda =    1.000000
                     rc =    7.420534
                 energy =    0.061236
                kinetic =    1.118077
    potential(screened) =   -1.056841
       potential(ionic) =   -6.673829

SPLIT: Orbitals with angular momentum L= 2

SPLIT: Basis orbitals for state 3d

   izeta = 1
                 lambda =    1.000000
                     rc =    6.386896
                 energy =   -0.127377
                kinetic =    3.973862
    potential(screened) =   -4.101239
       potential(ionic) =  -13.072348
atom: Total number of Sankey-type orbitals: 14

atm_pop: Valence configuration (for local Pseudopot. screening):
 3s( 2.00) 4s( 2.00)                                                  
 3p( 6.00) 4p( 0.00)                                                  
 3d( 0.00)                                                            
Vna: chval, zval:   10.00000  10.00000

Vna:  Cut-off radius for the neutral-atom potential:   7.058624
comcore: Pseudo-core radius Rcore=  1.923609

atom: _________________________________________________________________________

<basis_specs>
===============================================================================
Ti                   Z=  22    Mass=  47.880        Charge= 0.14884    
Lmxo=2 Lmxkb= 2    BasisType=split      Semic=T
L=0  Nsemic=1  Cnfigmx=4
          n=1  nzeta=1  polorb=0  (3s)
            splnorm:   0.15000    
               vcte:    89.059    
               rinn:    3.2900    
               qcoe:    0.0000    
               qyuk:    0.0000    
               qwid:   0.10000E-01
                rcs:    5.7456    
            lambdas:    1.0000    
          n=2  nzeta=2  polorb=0  (4s)
            splnorm:   0.15000    
               vcte:    86.234    
               rinn:    4.4569    
               qcoe:    0.0000    
               qyuk:    0.0000    
               qwid:   0.10000E-01
                rcs:    6.1444      4.0085    
            lambdas:    1.0000      1.0000    
L=1  Nsemic=1  Cnfigmx=4
          n=1  nzeta=1  polorb=0  (3p)
            splnorm:   0.15000    
               vcte:    100.88    
               rinn:    2.7882    
               qcoe:    0.0000    
               qyuk:    0.0000    
               qwid:   0.10000E-01
                rcs:    5.6862    
            lambdas:    1.0000    
          n=2  nzeta=1  polorb=0  (4p)
            splnorm:   0.15000    
               vcte:    14.333    
               rinn:    1.5899    
               qcoe:    0.0000    
               qyuk:    0.0000    
               qwid:   0.10000E-01
                rcs:    5.2111    
            lambdas:    1.0000    
L=2  Nsemic=0  Cnfigmx=3
          n=1  nzeta=2  polorb=0  (3d)
            splnorm:   0.15000    
               vcte:    47.831    
               rinn:    5.2681    
               qcoe:    0.0000    
               qyuk:    0.0000    
               qwid:   0.10000E-01
                rcs:    6.2263      2.8933    
            lambdas:    1.0000      1.0000    
-------------------------------------------------------------------------------
L=0  Nkbl=2  erefs: 0.17977+309 0.17977+309
L=1  Nkbl=2  erefs: 0.17977+309 0.17977+309
L=2  Nkbl=1  erefs: 0.17977+309
===============================================================================
</basis_specs>

atom: Called for Ti                    (Z =  22)

read_vps: Pseudopotential generation method:
read_vps: ONCVPSP-3.Hamann's oncvpsp                        
Total valence charge:   12.00000

read_vps: Pseudopotential includes a core correction:
read_vps: Pseudo-core for xc-correction

xc_check: Exchange-correlation functional:
xc_check: GGA LIBXC-0116-GGA_X_PBE
xc_check: WARNING: Pseudopotential generated with GGA PBEsol functional

xc_check: Exchange-correlation functional:
xc_check: GGA LIBXC-0133-GGA_C_PBE
xc_check: WARNING: Pseudopotential generated with GGA PBEsol functional
Got Vlocal (oncv-fit) from psml data
Choosing vlocal chloc cutoff:  5.592561
qtot up to nchloc:   11.99995716
atom: Maximum radius forchloc:    5.59256
atom: Maximum radius for r*vlocal+2*Zval:    5.59256
Reading KB projs from Ti psml data
Using scalar-relativistic projectors in PSML file

PSML: Kleinman-Bylander projectors: 
   l= 0   rc=  1.379024   Ekb= 22.643900
   l= 0   rc=  1.379024   Ekb=  2.508948
   l= 1   rc=  1.328264   Ekb=  3.893789
   l= 1   rc=  1.328264   Ekb= -0.168537
   l= 2   rc=  1.684368   Ekb=-10.474209
   l= 2   rc=  1.684368   Ekb= -2.976755

PSML: Total number of  Kleinman-Bylander projectors:  18
atom: -------------------------------------------------------------------------

atom: SANKEY-TYPE ORBITALS:
atom: Selected multiple-zeta basis: split     

atom: basis set generated (by rescaling the valence charge)
atom: for a cation of charge   0.1488

SPLIT: Orbitals with angular momentum L= 0

SPLIT: Basis orbitals for state 3s

   izeta = 1
                 lambda =    1.000000
                     rc =    5.806269
                 energy =   -4.807176
                kinetic =    2.225320
    potential(screened) =   -7.032496
       potential(ionic) =  -22.914322

SPLIT: Basis orbitals for state 4s

   izeta = 1
                 lambda =    1.000000
                     rc =    6.258494
                 energy =   -0.364169
                kinetic =    1.090199
    potential(screened) =   -1.454369
       potential(ionic) =   -9.883604

   izeta = 2
                 rmatch =    3.990551
              splitnorm =    0.882104
                 energy =    0.454455
                kinetic =    2.882074
    potential(screened) =   -2.427619
       potential(ionic) =  -13.789783

SPLIT: Orbitals with angular momentum L= 1

SPLIT: Basis orbitals for state 3p

   izeta = 1
                 lambda =    1.000000
                     rc =    5.662909
                 energy =   -3.059619
                kinetic =    4.893659
    potential(screened) =   -7.953278
       potential(ionic) =  -23.369311

SPLIT: Basis orbitals for state 4p

   izeta = 1
                 lambda =    1.000000
                     rc =    5.253718
                 energy =    0.267494
                kinetic =    2.599335
    potential(screened) =   -2.331841
       potential(ionic) =  -11.718224

SPLIT: Orbitals with angular momentum L= 2

SPLIT: Basis orbitals for state 3d

   izeta = 1
                 lambda =    1.000000
                     rc =    6.258494
                 energy =   -0.489631
                kinetic =    6.650921
    potential(screened) =   -7.140552
       potential(ionic) =  -20.562067

   izeta = 2
                 rmatch =    2.883251
              splitnorm =    0.160457
                 energy =   -0.265279
                kinetic =    9.401367
    potential(screened) =   -9.666647
       potential(ionic) =  -24.853333
atom: Total number of Sankey-type orbitals: 19

atm_pop: Valence configuration (for local Pseudopot. screening):
 3s( 2.00) 4s( 2.00)                                                  
 3p( 6.00) 4p( 0.00)                                                  
 3d( 2.00)                                                            
Vna: chval, zval:   12.00000  12.00000

Vna:  Cut-off radius for the neutral-atom potential:   6.258494
comcore: Pseudo-core radius Rcore=  1.770734

atom: _________________________________________________________________________

<basis_specs>
===============================================================================
O                    Z=   8    Mass=  16.000        Charge=-0.30180    
Lmxo=2 Lmxkb= 2    BasisType=split      Semic=F
L=0  Nsemic=0  Cnfigmx=2
          n=1  nzeta=2  polorb=0  (2s)
            splnorm:   0.15000    
               vcte:    34.616    
               rinn:    3.2807    
               qcoe:    0.0000    
               qyuk:    0.0000    
               qwid:   0.10000E-01
                rcs:    5.9969      2.8589    
            lambdas:    1.0000      1.0000    
L=1  Nsemic=0  Cnfigmx=2
          n=1  nzeta=2  polorb=0  (2p)
            splnorm:   0.15000    
               vcte:    36.286    
               rinn:    3.3012    
               qcoe:    0.0000    
               qyuk:    0.0000    
               qwid:   0.10000E-01
                rcs:    5.8991      3.8159    
            lambdas:    1.0000      1.0000    
L=2  Nsemic=0  Cnfigmx=3
          n=1  nzeta=1  polorb=0  (3d)
            splnorm:   0.15000    
               vcte:    25.598    
               rinn:   0.91089    
               qcoe:    0.0000    
               qyuk:    0.0000    
               qwid:   0.10000E-01
                rcs:    4.7048    
            lambdas:    1.0000    
-------------------------------------------------------------------------------
L=0  Nkbl=1  erefs: 0.17977+309
L=1  Nkbl=1  erefs: 0.17977+309
L=2  Nkbl=1  erefs: 0.17977+309
===============================================================================
</basis_specs>

atom: Called for O                     (Z =   8)

read_vps: Pseudopotential generation method:
read_vps: ONCVPSP-3.Hamann's oncvpsp                        
Total valence charge:    6.00000

read_vps: Pseudopotential includes a core correction:
read_vps: Pseudo-core for xc-correction

xc_check: Exchange-correlation functional:
xc_check: GGA LIBXC-0116-GGA_X_PBE
xc_check: WARNING: Pseudopotential generated with GGA PBEsol functional

xc_check: Exchange-correlation functional:
xc_check: GGA LIBXC-0133-GGA_C_PBE
xc_check: WARNING: Pseudopotential generated with GGA PBEsol functional
Got Vlocal (oncv-fit) from psml data
Choosing vlocal chloc cutoff:  6.022527
qtot up to nchloc:    6.00000891
atom: Maximum radius forchloc:    6.02253
atom: Maximum radius for r*vlocal+2*Zval:    6.02253
Reading KB projs from O psml data
Using scalar-relativistic projectors in PSML file

PSML: Kleinman-Bylander projectors: 
   l= 0   rc=  1.262145   Ekb= 14.461089
   l= 0   rc=  1.278025   Ekb=  1.986899
   l= 1   rc=  1.377587   Ekb=-10.498444
   l= 1   rc=  1.377587   Ekb= -2.586474
   l= 2   rc=  1.278025   Ekb= -2.671669

PSML: Total number of  Kleinman-Bylander projectors:  13
atom: -------------------------------------------------------------------------

atom: SANKEY-TYPE ORBITALS:
atom: Selected multiple-zeta basis: split     

atom: basis set generated (by rescaling the valence charge)
atom: for an anion of charge  -0.3018

SPLIT: Orbitals with angular momentum L= 0

SPLIT: Basis orbitals for state 2s

   izeta = 1
                 lambda =    1.000000
                     rc =    6.022527
                 energy =   -1.746581
                kinetic =    1.442189
    potential(screened) =   -3.188769
       potential(ionic) =  -10.923497

   izeta = 2
                 rmatch =    2.844677
              splitnorm =    0.112361
                 energy =   -1.616503
                kinetic =    2.117039
    potential(screened) =   -3.733542
       potential(ionic) =  -12.035817

SPLIT: Orbitals with angular momentum L= 1

SPLIT: Basis orbitals for state 2p

   izeta = 1
                 lambda =    1.000000
                     rc =    5.873823
                 energy =   -0.650840
                kinetic =    4.166405
    potential(screened) =   -4.817245
       potential(ionic) =  -12.188808

   izeta = 2
                 rmatch =    3.840021
              splitnorm =    0.045680
                 energy =   -0.624774
* WARNING: effective split_norm is quite small. Orbitals will be very similar.
                kinetic =    5.041454
    potential(screened) =   -5.666228
       potential(ionic) =  -13.532859

SPLIT: Orbitals with angular momentum L= 2

SPLIT: Basis orbitals for state 3d

   izeta = 1
                 lambda =    1.000000
                     rc =    4.690281
                 energy =    1.660187
                kinetic =    2.767368
    potential(screened) =   -1.107181
       potential(ionic) =   -6.499046
atom: Total number of Sankey-type orbitals: 13

atm_pop: Valence configuration (for local Pseudopot. screening):
 2s( 2.00)                                                            
 2p( 4.00)                                                            
 3d( 0.00)                                                            
Vna: chval, zval:    6.00000   6.00000

Vna:  Cut-off radius for the neutral-atom potential:   6.022527
comcore: Pseudo-core radius Rcore=  1.360471

atom: _________________________________________________________________________

prinput: Basis input 
* WARNING: This information might be incomplete!!!
----------------------------------------------------------

PAO.BasisType split     

%block ChemicalSpeciesLabel
    1   20 Ca                      # Species index, atomic number, species label
    2   22 Ti                      # Species index, atomic number, species label
    3    8 O                       # Species index, atomic number, species label
%endblock ChemicalSpeciesLabel

%block PAO.Basis                 # Define Basis set
# WARNING: This information might be incomplete!!!
Ca                    5  -0.017            # Label, l-shells, ionic net charge
 n=3   0   1                         # n, l, Nzeta 
   5.497   
   1.000   
 n=4   0   2                         # n, l, Nzeta 
   6.714      5.229   
   1.000      1.000   
 n=3   1   1                         # n, l, Nzeta 
   7.059   
   1.000   
 n=4   1   1                         # n, l, Nzeta 
   7.421   
   1.000   
 n=3   2   1                         # n, l, Nzeta 
   6.387   
   1.000   
Ti                    5   0.149            # Label, l-shells, ionic net charge
 n=3   0   1                         # n, l, Nzeta 
   5.806   
   1.000   
 n=4   0   2                         # n, l, Nzeta 
   6.258      3.991   
   1.000      1.000   
 n=3   1   1                         # n, l, Nzeta 
   5.663   
   1.000   
 n=4   1   1                         # n, l, Nzeta 
   5.254   
   1.000   
 n=3   2   2                         # n, l, Nzeta 
   6.258      2.883   
   1.000      1.000   
O                     3  -0.302            # Label, l-shells, ionic net charge
 n=2   0   2                         # n, l, Nzeta 
   6.023      2.845   
   1.000      1.000   
 n=2   1   2                         # n, l, Nzeta 
   5.874      3.840   
   1.000      1.000   
 n=3   2   1                         # n, l, Nzeta 
   4.690   
   1.000   
%endblock PAO.Basis

prinput: ----------------------------------------------------------------------

 CH_OVERLAP: Z1=   10.006961951150499       ZVAL1=   10.000000000000000     
 CH_OVERLAP: Z2=   10.006961951150499       ZVAL2=   10.000000000000000     
 CH_OVERLAP: Z1=   11.995005091130285       ZVAL1=   12.000000000000000     
 CH_OVERLAP: Z2=   11.995005091130285       ZVAL2=   12.000000000000000     
 CH_OVERLAP: Z1=   11.995005091130285       ZVAL1=   12.000000000000000     
 CH_OVERLAP: Z2=   10.006961951150499       ZVAL2=   10.000000000000000     
 CH_OVERLAP: Z1=   6.0106029084246302       ZVAL1=   6.0000000000000000     
 CH_OVERLAP: Z2=   6.0106029084246302       ZVAL2=   6.0000000000000000     
 CH_OVERLAP: Z1=   6.0106029084246302       ZVAL1=   6.0000000000000000     
 CH_OVERLAP: Z2=   11.995005091130285       ZVAL2=   12.000000000000000     
 CH_OVERLAP: Z1=   6.0106029084246302       ZVAL1=   6.0000000000000000     
 CH_OVERLAP: Z2=   10.006961951150499       ZVAL2=   10.000000000000000     
coor:   Atomic-coordinates input format  =     Fractional

siesta: Atomic coordinates (Bohr) and species
siesta:      0.00000   0.00000   0.00000  1        1
siesta:      3.27463   3.27463   3.27463  2        2
siesta:      0.00000   3.27463   3.27463  3        3
siesta:      3.27463   0.00000   3.27463  3        4
siesta:      3.27463   3.27463   0.00000  3        5

siesta: System type = bulk      

initatomlists: Number of atoms, orbitals, and projectors:      5    72    75

siesta: ******************** Simulation parameters ****************************
siesta:
siesta: The following are some of the parameters of the simulation.
siesta: A complete list of the parameters used, including default values,
siesta: can be found in file out.fdf
siesta:
redata: Spin configuration                          = none
redata: Number of spin components                   = 1
redata: Time-Reversal Symmetry                      = T
redata: Spin-spiral                                 = F
redata: Long output                                 =   F
redata: Number of Atomic Species                    =        3
redata: Charge density info will appear in .RHO file
redata: Write Mulliken Pop.                         = NO
redata: Matel table size (NRTAB)                    =     1024
redata: Mesh Cutoff                                 =   600.0000 Ry
redata: Net charge of the system                    =     0.0000 |e|
redata: Min. number of SCF Iter                     =        0
redata: Max. number of SCF Iter                     =      100
redata: SCF convergence failure will abort job
redata: SCF mix quantity                            = Hamiltonian
redata: Mix DM or H after convergence               =   F
redata: Recompute H after scf cycle                 =   F
redata: Mix DM in first SCF step                    =   T
redata: Write Pulay info on disk                    =   F
redata: New DM Mixing Weight                        =     0.2500
redata: New DM Occupancy tolerance                  = 0.000000000001
redata: No kicks to SCF
redata: DM Mixing Weight for Kicks                  =     0.5000
redata: Require Harris convergence for SCF          =   F
redata: Harris energy tolerance for SCF             =     0.000100 eV
redata: Require DM convergence for SCF              =   T
redata: DM tolerance for SCF                        =     0.000100
redata: Require EDM convergence for SCF             =   F
redata: EDM tolerance for SCF                       =     0.001000 eV
redata: Require H convergence for SCF               =   T
redata: Hamiltonian tolerance for SCF               =     0.001000 eV
redata: Require (free) Energy convergence for SCF   =   F
redata: (free) Energy tolerance for SCF             =     0.000100 eV
redata: Using Saved Data (generic)                  =   F
redata: Use continuation files for DM               =   T
redata: Neglect nonoverlap interactions             =   F
redata: Method of Calculation                       = Diagonalization
redata: Electronic Temperature                      =   870.3328 K
redata: Fix the spin of the system                  =   F
redata: Max. number of TDED Iter                    =        1
redata: Number of TDED substeps                     =        3
redata: Dynamics option                             = CG coord. optimization
redata: Variable cell                               =   T
redata: Use continuation files for CG               =   F
redata: Max atomic displ per move                   =     0.1588 Ang
redata: Maximum number of CG moves                  =       20
redata: Force tolerance                             =     0.0100 eV/Ang
redata: Stress tolerance                            =     0.0160 GPa
mix.SCF: Pulay mixing                            = Pulay
mix.SCF:    Variant                              = stable
mix.SCF:    History steps                        = 3
mix.SCF:    Linear mixing weight                 =     0.250000
mix.SCF:    Mixing weight                        =     0.250000
mix.SCF:    SVD condition                        = 0.1000E-07
redata: ***********************************************************************

%block SCF.Mixers
  Pulay
%endblock SCF.Mixers

%block SCF.Mixer.Pulay
  # Mixing method
  method pulay
  variant stable

  # Mixing options
  weight 0.2500
  weight.linear 0.2500
  history 3
%endblock SCF.Mixer.Pulay

DM_history_depth set to one: no extrapolation allowed by default for geometry relaxation
Size of DM history Fstack: 1
Total number of electrons:    40.000000
Total ionic charge:    40.000000
 Kpoints in:          108 . Kpoints trimmed:          108

siesta: k-grid: Number of k-points =       108
siesta: k-points from Monkhorst-Pack grid
siesta: k-cutoff (effective) =    10.397 Ang
siesta: k-point supercell and displacements
siesta: k-grid:    6   0   0      0.500
siesta: k-grid:    0   6   0      0.500
siesta: k-grid:    0   0   6      0.500
 Kpoints in:          108 . Kpoints trimmed:          108

siesta: PDOS k-grid: Number of k-points =       108
siesta: PDOS k-points from Monkhorst-Pack grid
siesta: PDOS k-cutoff (effective) =     0.000 Ang
siesta: PDOS k-point supercell and displacements
siesta: k-grid:    6   0   0      0.500
siesta: k-grid:    0   6   0      0.500
siesta: k-grid:    0   0   6      0.500

diag: Algorithm                                     = D&C
diag: Used triangular part                          = Lower
diag: Absolute tolerance                            =  0.100E-15
diag: Orthogonalization factor                      =  0.100E-05
diag: Memory factor                                 =  1.0000
Using LatticeConstant from fdf file for BandLinesScale:    6.549269 Bohr
Beware any cell changes by the end of the run
Using LatticeConstant from fdf file for BandLinesScale:    6.549269 Bohr
Beware any cell changes by the end of the run

superc: Internal auxiliary supercell:     7 x     7 x     7  =     343
superc: Number of atoms, orbitals, and projectors:   1715  24696  25725


ts: **************************************************************
ts: Save H and S matrices                           =    F
ts: Save DM and EDM matrices                        =    F
ts: Fix Hartree potential                           =    F
ts: Only save the overlap matrix S                  =    F
ts: **************************************************************

************************ Begin: TS CHECKS AND WARNINGS ************************
************************ End: TS CHECKS AND WARNINGS **************************


                     ====================================
                        Begin CG opt. move =      0
                     ====================================

outcoor: Atomic coordinates (fractional):                   
    0.00000000    0.00000000    0.00000000   1       1  Ca
    0.50000000    0.50000000    0.50000000   2       2  Ti
    0.00000000    0.50000000    0.50000000   3       3  O
    0.50000000    0.00000000    0.50000000   3       4  O
    0.50000000    0.50000000    0.00000000   3       5  O

superc: Internal auxiliary supercell:     7 x     7 x     7  =     343
superc: Number of atoms, orbitals, and projectors:   1715  24696  25725

outcell: Unit cell vectors (Ang):
        3.465723    0.000000    0.000000
        0.000000    3.465723    0.000000
        0.000000    0.000000    3.465723

outcell: Cell vector modules (Ang)   :    3.465723    3.465723    3.465723
outcell: Cell angles (23,13,12) (deg):     90.0000     90.0000     90.0000
outcell: Cell volume (Ang**3)        :     41.6276
<dSpData1D:S at geom step 0
  <sparsity:sparsity for geom step 0
    nrows_g=72 nrows=72 sparsity=25.9934 nnzs=134750, refcount: 7>
  <dData1D:(new from dSpData1D) n=134750, refcount: 1>
refcount: 1>
new_DM -- step:     1
Initializing Density Matrix...

Attempting to read DM from file... Failed...
DM filled with atomic data:
<dSpData2D:DM initialized from atoms
  <sparsity:sparsity for geom step 0
    nrows_g=72 nrows=72 sparsity=25.9934 nnzs=134750, refcount: 8>
  <dData2D:DM n=134750 m=1, refcount: 1>
refcount: 1>
No. of atoms with KB's overlaping orbs in proc 0. Max # of overlaps:      85     402
New grid distribution:   1
           1       1:   27    1:   27    1:   27

InitMesh: MESH =    54 x    54 x    54 =      157464
InitMesh: (bp) =    27 x    27 x    27 =       19683
InitMesh: Mesh cutoff (required, used) =   600.000   670.968 Ry
ExtMesh (bp) on 0 =   151 x   151 x   151 =     3442951
PhiOnMesh: Number of (b)points on node 0 =                19683
PhiOnMesh: nlist on node 0 =              3579575

stepf: Fermi-Dirac step function

siesta: Program's energy decomposition (eV):
siesta: Ebs     =      -870.972086
siesta: Eions   =      6014.726872
siesta: Ena     =       975.588556
siesta: Ekin    =      2092.915384
siesta: Enl     =      -189.695464
siesta: Eso     =         0.000000
siesta: Eldau   =         0.000000
siesta: DEna    =       -91.971813
siesta: DUscf   =        51.667538
siesta: DUext   =         0.000000
siesta: Enegf   =         0.000000
siesta: Exc     =      -813.785811
siesta: eta*DQ  =         0.000000
siesta: Emadel  =         0.000000
siesta: Emeta   =         0.000000
siesta: Emolmec =         0.000000
siesta: Ekinion =         0.000000
siesta: Eharris =     -3883.897021
siesta: Etot    =     -3990.008481
siesta: FreeEng =     -3990.008481

        iscf     Eharris(eV)        E_KS(eV)     FreeEng(eV)     dDmax    Ef(eV) dHmax(eV)
   scf:    1    -3883.897021    -3990.008481    -3990.008481  1.981536 -7.850454 14.596003
timer: Routine,Calls,Time,% = IterSCF        1      30.412  23.07
   scf:    2    -4029.064171    -4012.825532    -4012.825532  0.452937 -6.141028  5.524063
   scf:    3    -4015.727462    -4016.319279    -4016.319279  0.543065 -6.302117  3.007504
   scf:    4    -4008.063539    -4012.898935    -4012.899388  0.215299 -6.357870  9.023672
   scf:    5    -4017.985346    -4016.614113    -4016.614113  0.249279 -6.161863  0.836792
   scf:    6    -4016.647370    -4016.638477    -4016.638477  0.017382 -6.104879  0.070960
   scf:    7    -4016.638648    -4016.638587    -4016.638587  0.002647 -6.099027  0.033651
   scf:    8    -4016.638647    -4016.638623    -4016.638623  0.001344 -6.100071  0.004264
   scf:    9    -4016.638626    -4016.638625    -4016.638625  0.000487 -6.100943  0.001675
   scf:   10    -4016.638625    -4016.638625    -4016.638625  0.000447 -6.101413  0.000994
   scf:   11    -4016.638625    -4016.638625    -4016.638625  0.000342 -6.101568  0.000576
   scf:   12    -4016.638625    -4016.638625    -4016.638625  0.000084 -6.101496  0.000537

SCF Convergence by DM+H criterion
max |DM_out - DM_in|         :     0.0000838896
max |H_out - H_in|      (eV) :     0.0005366170
SCF cycle converged after 12 iterations

Using DM_out to compute the final energy and forces
No. of atoms with KB's overlaping orbs in proc 0. Max # of overlaps:      85     402

siesta: E_KS(eV) =            -4016.6386

siesta: E_KS - E_eggbox =     -4016.6386

siesta: Atomic forces (eV/Ang):
----------------------------------------
   Tot   -0.000000    0.000000   -0.000000
----------------------------------------
   Max    0.000000
   Res    0.000000    sqrt( Sum f_i^2 / 3N )
----------------------------------------
   Max    0.000000    constrained

Stress-tensor-Voigt (kbar):    -1202.10    -1202.10    -1202.10        0.00        0.00       -0.00
(Free)E + p*V (eV/cell)    -3985.4061
Target enthalpy (eV/cell)    -4016.6386

siesta: Stress tensor (static) (eV/Ang**3):
        -0.750283    0.000000   -0.000000
         0.000000   -0.750283   -0.000000
        -0.000000    0.000000   -0.750283

siesta: Pressure (static):       1202.09865984  kBar

siesta: Stress tensor (total) (eV/Ang**3):
        -0.750283    0.000000   -0.000000
         0.000000   -0.750283   -0.000000
        -0.000000    0.000000   -0.750283

siesta: Pressure (total):       1202.09865984  kBar

cgvc: No target stress found, assuming hydrostatic MD.TargetPressure.

cgvc: Target stress (kBar)
cgvc:        -0.000       0.000       0.000
cgvc:         0.000      -0.000       0.000
cgvc:         0.000       0.000      -0.000

                     ====================================
                        Begin CG opt. move =      1
                     ====================================

outcoor: Atomic coordinates (fractional):                   
    0.00000000   -0.00000000   -0.00000000   1       1  Ca
    0.50000000    0.50000000    0.50000000   2       2  Ti
    0.00000000    0.50000000    0.50000000   3       3  O
    0.50000000    0.00000000    0.50000000   3       4  O
    0.50000000    0.50000000    0.00000000   3       5  O
 Kpoints in:          108 . Kpoints trimmed:          108

siesta: k-grid: Number of k-points =       108
siesta: k-points from Monkhorst-Pack grid
siesta: k-cutoff (effective) =    10.588 Ang
siesta: k-point supercell and displacements
siesta: k-grid:    6   0   0      0.500
siesta: k-grid:    0   6   0      0.500
siesta: k-grid:    0   0   6      0.500

superc: Internal auxiliary supercell:     7 x     7 x     7  =     343
superc: Number of atoms, orbitals, and projectors:   1715  24696  25725

outcell: Unit cell vectors (Ang):
        3.529254    0.000000    0.000000
        0.000000    3.529254    0.000000
        0.000000    0.000000    3.529254

outcell: Cell vector modules (Ang)   :    3.529254    3.529254    3.529254
outcell: Cell angles (23,13,12) (deg):     90.0000     90.0000     90.0000
outcell: Cell volume (Ang**3)        :     43.9591
<dSpData1D:S at geom step 1
  <sparsity:sparsity for geom step 1
    nrows_g=72 nrows=72 sparsity=24.9124 nnzs=129146, refcount: 7>
  <dData1D:(new from dSpData1D) n=129146, refcount: 1>
refcount: 1>
new_DM -- step:     2
Re-using DM from previous geometries...
Number of DMs in history: 1
 DM extrapolation coefficients: 
1   1.00000
New DM after history re-use:
<dSpData2D:SpM extrapolated using coords
  <sparsity:sparsity for geom step 1
    nrows_g=72 nrows=72 sparsity=24.9124 nnzs=129146, refcount: 8>
  <dData2D:(temp array for extrapolation) n=129146 m=1, refcount: 1>
refcount: 1>
Note: For starting DM, Qtot, Tr[D*S] =         40.00000000         40.11099590
No. of atoms with KB's overlaping orbs in proc 0. Max # of overlaps:      76     383
New grid distribution:   1
           1       1:   27    1:   27    1:   27

InitMesh: MESH =    54 x    54 x    54 =      157464
InitMesh: (bp) =    27 x    27 x    27 =       19683
InitMesh: Mesh cutoff (required, used) =   600.000   647.029 Ry
ExtMesh (bp) on 0 =   151 x   151 x   151 =     3442951
PhiOnMesh: Number of (b)points on node 0 =                19683
PhiOnMesh: nlist on node 0 =              3391580

        iscf     Eharris(eV)        E_KS(eV)     FreeEng(eV)     dDmax    Ef(eV) dHmax(eV)
   scf:    1    -4020.268229    -4018.133198    -4018.133198  0.102214 -5.814485  0.458091
   scf:    2    -4018.005145    -4018.106889    -4018.106889  0.130407 -6.121502  0.681536
   scf:    3    -4018.170964    -4018.153473    -4018.153473  0.075483 -5.954645  0.046113
   scf:    4    -4018.153595    -4018.153543    -4018.153543  0.002276 -5.959715  0.028946
   scf:    5    -4018.153578    -4018.153561    -4018.153561  0.001570 -5.961485  0.014479
   scf:    6    -4018.153571    -4018.153567    -4018.153567  0.001417 -5.963315  0.000795
   scf:    7    -4018.153567    -4018.153567    -4018.153567  0.000103 -5.963363  0.000278
   scf:    8    -4018.153567    -4018.153567    -4018.153567  0.000044 -5.963425  0.000189

SCF Convergence by DM+H criterion
max |DM_out - DM_in|         :     0.0000443032
max |H_out - H_in|      (eV) :     0.0001892434
SCF cycle converged after 8 iterations

Using DM_out to compute the final energy and forces
No. of atoms with KB's overlaping orbs in proc 0. Max # of overlaps:      76     383

siesta: E_KS(eV) =            -4018.1536

siesta: Atomic forces (eV/Ang):
----------------------------------------
   Tot   -0.000000   -0.000000    0.000000
----------------------------------------
   Max    0.000000
   Res    0.000000    sqrt( Sum f_i^2 / 3N )
----------------------------------------
   Max    0.000000    constrained

Stress-tensor-Voigt (kbar):     -892.28     -892.28     -892.28        0.00       -0.00        0.00
(Free)E + p*V (eV/cell)    -3993.6721
Target enthalpy (eV/cell)    -4018.1536

siesta: Stress tensor (static) (eV/Ang**3):
        -0.556914    0.000000    0.000000
         0.000000   -0.556914   -0.000000
         0.000000   -0.000000   -0.556914

siesta: Pressure (static):        892.28411246  kBar

siesta: Stress tensor (total) (eV/Ang**3):
        -0.556914    0.000000    0.000000
         0.000000   -0.556914   -0.000000
         0.000000   -0.000000   -0.556914

siesta: Pressure (total):        892.28411246  kBar

                     ====================================
                        Begin CG opt. move =      2
                     ====================================

outcoor: Atomic coordinates (fractional):                   
    0.00000000   -0.00000000   -0.00000000   1       1  Ca
    0.50000000    0.50000000    0.50000000   2       2  Ti
    0.00000000    0.50000000    0.50000000   3       3  O
    0.50000000    0.00000000    0.50000000   3       4  O
    0.50000000    0.50000000    0.00000000   3       5  O
 Kpoints in:          108 . Kpoints trimmed:          108

siesta: k-grid: Number of k-points =       108
siesta: k-points from Monkhorst-Pack grid
siesta: k-cutoff (effective) =    10.893 Ang
siesta: k-point supercell and displacements
siesta: k-grid:    6   0   0      0.500
siesta: k-grid:    0   6   0      0.500
siesta: k-grid:    0   0   6      0.500

superc: Internal auxiliary supercell:     7 x     7 x     7  =     343
superc: Number of atoms, orbitals, and projectors:   1715  24696  25725

outcell: Unit cell vectors (Ang):
        3.630903    0.000000    0.000000
        0.000000    3.630903    0.000000
        0.000000    0.000000    3.630903

outcell: Cell vector modules (Ang)   :    3.630903    3.630903    3.630903
outcell: Cell angles (23,13,12) (deg):     90.0000     90.0000     90.0000
outcell: Cell volume (Ang**3)        :     47.8679
<dSpData1D:S at geom step 2
  <sparsity:sparsity for geom step 2
    nrows_g=72 nrows=72 sparsity=21.2527 nnzs=110174, refcount: 7>
  <dData1D:(new from dSpData1D) n=110174, refcount: 1>
refcount: 1>
new_DM -- step:     3
Re-using DM from previous geometries...
Number of DMs in history: 1
 DM extrapolation coefficients: 
1   1.00000
New DM after history re-use:
<dSpData2D:SpM extrapolated using coords
  <sparsity:sparsity for geom step 2
    nrows_g=72 nrows=72 sparsity=21.2527 nnzs=110174, refcount: 8>
  <dData2D:(temp array for extrapolation) n=110174 m=1, refcount: 1>
refcount: 1>
Note: For starting DM, Qtot, Tr[D*S] =         40.00000000         40.13726732
No. of atoms with KB's overlaping orbs in proc 0. Max # of overlaps:      70     346
New grid distribution:   1
           1       1:   27    1:   27    1:   27

InitMesh: MESH =    54 x    54 x    54 =      157464
InitMesh: (bp) =    27 x    27 x    27 =       19683
InitMesh: Mesh cutoff (required, used) =   600.000   611.308 Ry
ExtMesh (bp) on 0 =   147 x   147 x   147 =     3176523
PhiOnMesh: Number of (b)points on node 0 =                19683
PhiOnMesh: nlist on node 0 =              3120016

        iscf     Eharris(eV)        E_KS(eV)     FreeEng(eV)     dDmax    Ef(eV) dHmax(eV)
   scf:    1    -4022.329340    -4019.772379    -4019.772379  0.156146 -5.556710  0.741706
   scf:    2    -4019.374652    -4019.682666    -4019.682666  0.204479 -6.036125  1.178152
   scf:    3    -4019.870217    -4019.823017    -4019.823017  0.121656 -5.770008  0.077503
   scf:    4    -4019.823368    -4019.823214    -4019.823214  0.003628 -5.780598  0.049296
   scf:    5    -4019.823310    -4019.823264    -4019.823264  0.001880 -5.783682  0.025698
   scf:    6    -4019.823294    -4019.823281    -4019.823281  0.001805 -5.785156  0.000977
   scf:    7    -4019.823282    -4019.823281    -4019.823282  0.000142 -5.785166  0.000514
   scf:    8    -4019.823282    -4019.823282    -4019.823282  0.000062 -5.785300  0.000356

SCF Convergence by DM+H criterion
max |DM_out - DM_in|         :     0.0000620429
max |H_out - H_in|      (eV) :     0.0003558120
SCF cycle converged after 8 iterations

Using DM_out to compute the final energy and forces
No. of atoms with KB's overlaping orbs in proc 0. Max # of overlaps:      70     346

siesta: E_KS(eV) =            -4019.8233

siesta: Atomic forces (eV/Ang):
----------------------------------------
   Tot    0.000000   -0.000000   -0.000000
----------------------------------------
   Max    0.000000
   Res    0.000000    sqrt( Sum f_i^2 / 3N )
----------------------------------------
   Max    0.000000    constrained

Stress-tensor-Voigt (kbar):     -503.17     -503.17     -503.17        0.00       -0.00       -0.00
(Free)E + p*V (eV/cell)    -4004.7903
Target enthalpy (eV/cell)    -4019.8233

siesta: Stress tensor (static) (eV/Ang**3):
        -0.314052    0.000000   -0.000000
         0.000000   -0.314052    0.000000
        -0.000000   -0.000000   -0.314052

siesta: Pressure (static):        503.17150565  kBar

siesta: Stress tensor (total) (eV/Ang**3):
        -0.314052    0.000000   -0.000000
         0.000000   -0.314052    0.000000
        -0.000000   -0.000000   -0.314052

siesta: Pressure (total):        503.17150565  kBar

                     ====================================
                        Begin CG opt. move =      3
                     ====================================

outcoor: Atomic coordinates (fractional):                   
    0.00000000   -0.00000000   -0.00000000   1       1  Ca
    0.50000000    0.50000000    0.50000000   2       2  Ti
    0.00000000    0.50000000    0.50000000   3       3  O
    0.50000000    0.00000000    0.50000000   3       4  O
    0.50000000    0.50000000    0.00000000   3       5  O
 Kpoints in:          108 . Kpoints trimmed:          108

siesta: k-grid: Number of k-points =       108
siesta: k-points from Monkhorst-Pack grid
siesta: k-cutoff (effective) =    11.223 Ang
siesta: k-point supercell and displacements
siesta: k-grid:    6   0   0      0.500
siesta: k-grid:    0   6   0      0.500
siesta: k-grid:    0   0   6      0.500

superc: Internal auxiliary supercell:     7 x     7 x     7  =     343
superc: Number of atoms, orbitals, and projectors:   1715  24696  25725

outcell: Unit cell vectors (Ang):
        3.740942    0.000000    0.000000
        0.000000    3.740942    0.000000
        0.000000    0.000000    3.740942

outcell: Cell vector modules (Ang)   :    3.740942    3.740942    3.740942
outcell: Cell angles (23,13,12) (deg):     90.0000     90.0000     90.0000
outcell: Cell volume (Ang**3)        :     52.3532
<dSpData1D:S at geom step 3
  <sparsity:sparsity for geom step 3
    nrows_g=72 nrows=72 sparsity=19.4344 nnzs=100748, refcount: 7>
  <dData1D:(new from dSpData1D) n=100748, refcount: 1>
refcount: 1>
new_DM -- step:     4
Re-using DM from previous geometries...
Number of DMs in history: 1
 DM extrapolation coefficients: 
1   1.00000
New DM after history re-use:
<dSpData2D:SpM extrapolated using coords
  <sparsity:sparsity for geom step 3
    nrows_g=72 nrows=72 sparsity=19.4344 nnzs=100748, refcount: 8>
  <dData2D:(temp array for extrapolation) n=100748 m=1, refcount: 1>
refcount: 1>
Note: For starting DM, Qtot, Tr[D*S] =         40.00000000         40.08655843
No. of atoms with KB's overlaping orbs in proc 0. Max # of overlaps:      64     346
New grid distribution:   1
           1       1:   30    1:   30    1:   30

InitMesh: MESH =    60 x    60 x    60 =      216000
InitMesh: (bp) =    30 x    30 x    30 =       27000
InitMesh: Mesh cutoff (required, used) =   600.000   710.955 Ry
ExtMesh (bp) on 0 =   158 x   158 x   158 =     3944312
PhiOnMesh: Number of (b)points on node 0 =                27000
PhiOnMesh: nlist on node 0 =              3897607

        iscf     Eharris(eV)        E_KS(eV)     FreeEng(eV)     dDmax    Ef(eV) dHmax(eV)
   scf:    1    -4022.545443    -4020.729765    -4020.729765  0.182371 -5.403831  0.787229
   scf:    2    -4020.194893    -4020.600016    -4020.600016  0.207084 -5.893233  1.335345
   scf:    3    -4020.838056    -4020.784350    -4020.784350  0.127256 -5.616865  0.087155
   scf:    4    -4020.784938    -4020.784686    -4020.784686  0.006114 -5.633660  0.060051
   scf:    5    -4020.784815    -4020.784754    -4020.784754  0.001993 -5.636772  0.031590
   scf:    6    -4020.784795    -4020.784778    -4020.784778  0.001633 -5.638634  0.000869
   scf:    7    -4020.784778    -4020.784778    -4020.784778  0.000104 -5.638449  0.000656
   scf:    8    -4020.784778    -4020.784778    -4020.784778  0.000106 -5.638428  0.000334
   scf:    9    -4020.784778    -4020.784778    -4020.784778  0.000091 -5.638498  0.000127

SCF Convergence by DM+H criterion
max |DM_out - DM_in|         :     0.0000908305
max |H_out - H_in|      (eV) :     0.0001270859
SCF cycle converged after 9 iterations

Using DM_out to compute the final energy and forces
No. of atoms with KB's overlaping orbs in proc 0. Max # of overlaps:      64     346

siesta: E_KS(eV) =            -4020.7848

siesta: Atomic forces (eV/Ang):
----------------------------------------
   Tot   -0.000000   -0.000000    0.000000
----------------------------------------
   Max    0.000000
   Res    0.000000    sqrt( Sum f_i^2 / 3N )
----------------------------------------
   Max    0.000000    constrained

Stress-tensor-Voigt (kbar):     -203.88     -203.88     -203.88       -0.00        0.00        0.00
(Free)E + p*V (eV/cell)    -4014.1229
Target enthalpy (eV/cell)    -4020.7848

siesta: Stress tensor (static) (eV/Ang**3):
        -0.127248   -0.000000    0.000000
        -0.000000   -0.127248   -0.000000
         0.000000    0.000000   -0.127248

siesta: Pressure (static):        203.87673107  kBar

siesta: Stress tensor (total) (eV/Ang**3):
        -0.127248   -0.000000    0.000000
        -0.000000   -0.127248   -0.000000
         0.000000    0.000000   -0.127248

siesta: Pressure (total):        203.87673107  kBar

                     ====================================
                        Begin CG opt. move =      4
                     ====================================

outcoor: Atomic coordinates (fractional):                   
    0.00000000   -0.00000000   -0.00000000   1       1  Ca
    0.50000000    0.50000000    0.50000000   2       2  Ti
    0.00000000    0.50000000    0.50000000   3       3  O
    0.50000000    0.00000000    0.50000000   3       4  O
    0.50000000    0.50000000    0.00000000   3       5  O
 Kpoints in:          108 . Kpoints trimmed:          108

siesta: k-grid: Number of k-points =       108
siesta: k-points from Monkhorst-Pack grid
siesta: k-cutoff (effective) =    11.553 Ang
siesta: k-point supercell and displacements
siesta: k-grid:    6   0   0      0.500
siesta: k-grid:    0   6   0      0.500
siesta: k-grid:    0   0   6      0.500

superc: Internal auxiliary supercell:     7 x     7 x     7  =     343
superc: Number of atoms, orbitals, and projectors:   1715  24696  25725

outcell: Unit cell vectors (Ang):
        3.850981    0.000000    0.000000
        0.000000    3.850981    0.000000
        0.000000    0.000000    3.850981

outcell: Cell vector modules (Ang)   :    3.850981    3.850981    3.850981
outcell: Cell angles (23,13,12) (deg):     90.0000     90.0000     90.0000
outcell: Cell volume (Ang**3)        :     57.1103
<dSpData1D:S at geom step 4
  <sparsity:sparsity for geom step 4
    nrows_g=72 nrows=72 sparsity=17.5779 nnzs=91124, refcount: 7>
  <dData1D:(new from dSpData1D) n=91124, refcount: 1>
refcount: 1>
new_DM -- step:     5
Re-using DM from previous geometries...
Number of DMs in history: 1
 DM extrapolation coefficients: 
1   1.00000
New DM after history re-use:
<dSpData2D:SpM extrapolated using coords
  <sparsity:sparsity for geom step 4
    nrows_g=72 nrows=72 sparsity=17.5779 nnzs=91124, refcount: 8>
  <dData2D:(temp array for extrapolation) n=91124 m=1, refcount: 1>
refcount: 1>
No. of atoms with KB's overlaping orbs in proc 0. Max # of overlaps:      52     340
New grid distribution:   1
           1       1:   30    1:   30    1:   30

InitMesh: MESH =    60 x    60 x    60 =      216000
InitMesh: (bp) =    30 x    30 x    30 =       27000
InitMesh: Mesh cutoff (required, used) =   600.000   670.906 Ry
ExtMesh (bp) on 0 =   154 x   154 x   154 =     3652264
PhiOnMesh: Number of (b)points on node 0 =                27000
PhiOnMesh: nlist on node 0 =              3579185

        iscf     Eharris(eV)        E_KS(eV)     FreeEng(eV)     dDmax    Ef(eV) dHmax(eV)
   scf:    1    -4021.905835    -4021.021637    -4021.021637  0.170797 -5.303285  0.737260
   scf:    2    -4020.518563    -4020.895992    -4020.895992  0.183882 -5.765714  1.298187
   scf:    3    -4021.112061    -4021.068197    -4021.068197  0.114678 -5.503238  0.094353
   scf:    4    -4021.068956    -4021.068642    -4021.068642  0.007086 -5.520912  0.071433
   scf:    5    -4021.068821    -4021.068737    -4021.068737  0.002402 -5.524451  0.031288
   scf:    6    -4021.068774    -4021.068758    -4021.068759  0.001365 -5.525633  0.001106
   scf:    7    -4021.068759    -4021.068759    -4021.068759  0.000053 -5.525665  0.000700

SCF Convergence by DM+H criterion
max |DM_out - DM_in|         :     0.0000532752
max |H_out - H_in|      (eV) :     0.0006995063
SCF cycle converged after 7 iterations

Using DM_out to compute the final energy and forces
No. of atoms with KB's overlaping orbs in proc 0. Max # of overlaps:      52     340

siesta: E_KS(eV) =            -4021.0688

siesta: Atomic forces (eV/Ang):
----------------------------------------
   Tot   -0.000000   -0.000000   -0.000000
----------------------------------------
   Max    0.000000
   Res    0.000000    sqrt( Sum f_i^2 / 3N )
----------------------------------------
   Max    0.000000    constrained

Stress-tensor-Voigt (kbar):        0.53        0.53        0.53       -0.00       -0.00        0.00
(Free)E + p*V (eV/cell)    -4021.0877
Target enthalpy (eV/cell)    -4021.0688

siesta: Stress tensor (static) (eV/Ang**3):
         0.000332   -0.000000    0.000000
        -0.000000    0.000332    0.000000
         0.000000   -0.000000    0.000332

siesta: Pressure (static):         -0.53163090  kBar

siesta: Stress tensor (total) (eV/Ang**3):
         0.000332   -0.000000    0.000000
        -0.000000    0.000332    0.000000
         0.000000   -0.000000    0.000332

siesta: Pressure (total):         -0.53163090  kBar

                     ====================================
                        Begin CG opt. move =      5
                     ====================================

outcoor: Atomic coordinates (fractional):                   
    0.00000000   -0.00000000   -0.00000000   1       1  Ca
    0.50000000    0.50000000    0.50000000   2       2  Ti
    0.00000000    0.50000000    0.50000000   3       3  O
    0.50000000    0.00000000    0.50000000   3       4  O
    0.50000000    0.50000000    0.00000000   3       5  O
 Kpoints in:          108 . Kpoints trimmed:          108

siesta: k-grid: Number of k-points =       108
siesta: k-points from Monkhorst-Pack grid
siesta: k-cutoff (effective) =    11.552 Ang
siesta: k-point supercell and displacements
siesta: k-grid:    6   0   0      0.500
siesta: k-grid:    0   6   0      0.500
siesta: k-grid:    0   0   6      0.500

superc: Internal auxiliary supercell:     7 x     7 x     7  =     343
superc: Number of atoms, orbitals, and projectors:   1715  24696  25725

outcell: Unit cell vectors (Ang):
        3.850669    0.000000    0.000000
        0.000000    3.850669    0.000000
        0.000000    0.000000    3.850669

outcell: Cell vector modules (Ang)   :    3.850669    3.850669    3.850669
outcell: Cell angles (23,13,12) (deg):     90.0000     90.0000     90.0000
outcell: Cell volume (Ang**3)        :     57.0964
<dSpData1D:S at geom step 5
  <sparsity:sparsity for geom step 5
    nrows_g=72 nrows=72 sparsity=17.5779 nnzs=91124, refcount: 7>
  <dData1D:(new from dSpData1D) n=91124, refcount: 1>
refcount: 1>
new_DM -- step:     6
Re-using DM from previous geometries...
Number of DMs in history: 1
 DM extrapolation coefficients: 
1   1.00000
New DM after history re-use:
<dSpData2D:SpM extrapolated using coords
  <sparsity:sparsity for geom step 5
    nrows_g=72 nrows=72 sparsity=17.5779 nnzs=91124, refcount: 8>
  <dData2D:(temp array for extrapolation) n=91124 m=1, refcount: 1>
refcount: 1>
No. of atoms with KB's overlaping orbs in proc 0. Max # of overlaps:      52     340
New grid distribution:   1
           1       1:   30    1:   30    1:   30

InitMesh: MESH =    60 x    60 x    60 =      216000
InitMesh: (bp) =    30 x    30 x    30 =       27000
InitMesh: Mesh cutoff (required, used) =   600.000   671.014 Ry
ExtMesh (bp) on 0 =   154 x   154 x   154 =     3652264
PhiOnMesh: Number of (b)points on node 0 =                27000
PhiOnMesh: nlist on node 0 =              3579758

        iscf     Eharris(eV)        E_KS(eV)     FreeEng(eV)     dDmax    Ef(eV) dHmax(eV)
   scf:    1    -4021.066787    -4021.068761    -4021.068762  0.000416 -5.526508  0.001757
   scf:    2    -4021.068758    -4021.068761    -4021.068761  0.000460 -5.525364  0.003163
   scf:    3    -4021.068762    -4021.068762    -4021.068762  0.000291 -5.526025  0.000196
   scf:    4    -4021.068762    -4021.068762    -4021.068762  0.000020 -5.525986  0.000158

SCF Convergence by DM+H criterion
max |DM_out - DM_in|         :     0.0000195569
max |H_out - H_in|      (eV) :     0.0001578537
SCF cycle converged after 4 iterations

Using DM_out to compute the final energy and forces
No. of atoms with KB's overlaping orbs in proc 0. Max # of overlaps:      52     340

siesta: E_KS(eV) =            -4021.0688

siesta: Atomic forces (eV/Ang):
----------------------------------------
   Tot   -0.000000   -0.000000    0.000000
----------------------------------------
   Max    0.000000
   Res    0.000000    sqrt( Sum f_i^2 / 3N )
----------------------------------------
   Max    0.000000    constrained

Stress-tensor-Voigt (kbar):        0.07        0.07        0.07        0.00       -0.00        0.00
(Free)E + p*V (eV/cell)    -4021.0712
Target enthalpy (eV/cell)    -4021.0688

siesta: Stress tensor (static) (eV/Ang**3):
         0.000042    0.000000    0.000000
         0.000000    0.000042   -0.000000
         0.000000   -0.000000    0.000042

siesta: Pressure (static):         -0.06782290  kBar

siesta: Stress tensor (total) (eV/Ang**3):
         0.000042    0.000000    0.000000
         0.000000    0.000042   -0.000000
         0.000000   -0.000000    0.000042

siesta: Pressure (total):         -0.06782290  kBar

outcoor: Relaxed atomic coordinates (fractional):           
    0.00000000   -0.00000000   -0.00000000   1       1  Ca
    0.50000000    0.50000000    0.50000000   2       2  Ti
    0.00000000    0.50000000    0.50000000   3       3  O
    0.50000000    0.00000000    0.50000000   3       4  O
    0.50000000    0.50000000    0.00000000   3       5  O

outcell: Unit cell vectors (Ang):
        3.850669    0.000000    0.000000
        0.000000    3.850669    0.000000
        0.000000    0.000000    3.850669

outcell: Cell vector modules (Ang)   :    3.850669    3.850669    3.850669
outcell: Cell angles (23,13,12) (deg):     90.0000     90.0000     90.0000
outcell: Cell volume (Ang**3)        :     57.0964
Computing bands...

siesta: PDOS info
siesta: E1 -- E2, sigma [eV], nhist:  -70.000 --   20.000    0.150 3000

siesta: Program's energy decomposition (eV):
siesta: Ebs     =      -914.882938
siesta: Eions   =      6014.726872
siesta: Ena     =       995.242404
siesta: Ekin    =      1902.045046
siesta: Enl     =      -113.805142
siesta: Eso     =         0.000000
siesta: Eldau   =         0.000000
siesta: DEna    =       -24.985545
siesta: DUscf   =         7.459893
siesta: DUext   =         0.000000
siesta: Enegf   =         0.000000
siesta: Exc     =      -772.298546
siesta: eta*DQ  =         0.000000
siesta: Emadel  =         0.000000
siesta: Emeta   =         0.000000
siesta: Emolmec =         0.000000
siesta: Ekinion =         0.000000
siesta: Eharris =     -4021.068762
siesta: Etot    =     -4021.068762
siesta: FreeEng =     -4021.068762

siesta: Final energy (eV):
siesta:  Band Struct. =    -914.882938
siesta:       Kinetic =    1902.045046
siesta:       Hartree =     875.861191
siesta:       Eldau   =       0.000000
siesta:       Eso     =       0.000000
siesta:    Ext. field =       0.000000
siesta:       Enegf   =       0.000000
siesta:   Exch.-corr. =    -772.298546
siesta:  Ion-electron =   -3733.766746
siesta:       Ion-ion =   -2292.909706
siesta:       Ekinion =       0.000000
siesta:         Total =   -4021.068762
siesta:         Fermi =      -5.525986

siesta: Stress tensor (static) (eV/Ang**3):
siesta:     0.000042    0.000000    0.000000
siesta:     0.000000    0.000042   -0.000000
siesta:     0.000000   -0.000000    0.000042

siesta: Constrained stress tensor (static) (eV/Ang**3):
siesta:     0.000042    0.000000    0.000000
siesta:     0.000000    0.000042   -0.000000
siesta:     0.000000   -0.000000    0.000042

siesta: Cell volume =         57.096368 Ang**3

siesta: Pressure (static):
siesta:                Solid            Molecule  Units
siesta:          -0.00000046         -0.00000046  Ry/Bohr**3
siesta:          -0.00004233         -0.00004233  eV/Ang**3
siesta:          -0.06782290         -0.06782284  kBar
(Free)E+ p_basis*V_orbitals  =       -4017.547499
(Free)Eharris+ p_basis*V_orbitals  =       -4017.547499

timer: Elapsed wall time (sec) =    1168.540
timer: CPU execution times (sec):

Routine            Calls   Time/call    Tot.time        %
siesta                 1    1024.402    1024.402   100.00
Setup                  1       0.536       0.536     0.05
bands                  3       2.361       7.083     0.69
KSV_init               1       0.000       0.000     0.00
IterGeom               6     168.286    1009.716    98.57
state_init             6       1.551       9.305     0.91
hsparse                6       0.100       0.600     0.06
overlap                6       1.331       7.987     0.78
Setup_H0               6      25.725     154.351    15.07
naefs                 12       0.001       0.015     0.00
MolMec                12       0.000       0.000     0.00
kinefsm               12       1.150      13.799     1.35
nlefsm                12       6.085      73.020     7.13
DHSCF_Init             6      11.932      71.591     6.99
DHSCF1                 6       0.433       2.596     0.25
INITMESH               6       0.000       0.000     0.00
DHSCF2                 6      11.499      68.993     6.73
REMESH                 6       2.554      15.326     1.50
REORD                210       0.001       0.109     0.01
PHION                  6       8.011      48.068     4.69
COMM_BSC             138       0.001       0.078     0.01
POISON                66       0.021       1.382     0.13
fft                  132       0.008       1.024     0.10
IterSCF               48      14.804     710.614    69.37
setup_H               54       9.083     490.503    47.88
DHSCF                 60      10.357     621.396    60.66
DHSCF3                60       8.922     535.308    52.26
rhoofd                60       4.609     276.525    26.99
CellXC                60       0.546      32.731     3.20
gridxc@cellXC         60       0.545      32.730     3.19
vmat                  60       3.741     224.432    21.91
compute_dm            48       4.579     219.807    21.46
diagon                48       4.564     219.055    21.38
c-eigval            6040       0.012      71.979     7.03
c-buildHS           6040       0.010      60.630     5.92
cdiag              11332       0.003      34.751     3.39
cdiag1             11332       0.000       2.671     0.26
cdiag2             11332       0.001       7.361     0.72
cdiag3             11332       0.002      23.191     2.26
c-eigvec            5184       0.015      78.367     7.65
cdiag4              5292       0.000       1.151     0.11
c-buildD            5184       0.015      75.511     7.37
MIXER                 42       0.003       0.144     0.01
PostSCF                6      22.573     135.438    13.22
DHSCF4                 6      14.348      86.088     8.40
dfscf                  6      13.477      80.859     7.89
overfsm                6       0.067       0.403     0.04
state_analysis         6       0.000       0.002     0.00
siesta_move            6       0.000       0.002     0.00
Analysis               1      14.137      14.137     1.38
pdos                   1       7.037       7.037     0.69
optical                1       0.000       0.000     0.00
  

>> End of run:   8-APR-2020  11:11:02
Job completed
