<?xml version="1.0" encoding="UTF-8" ?>
<psml version="1.1" energy_unit="hartree" length_unit="bohr"
 uuid="14acf8b0-1d66-11e8-4a41-3692dfd56b73"
 xmlns="http://esl.cecam.org/PSML/ns/1.1">
<provenance creator="ONCVPSP-3.3.0+psml-3.3.0-73 (scalar-relativistic)"
 date="2018-03-01">
<annotation action="semilocal-pseudopotential-generation"
 action-cont="projectors-generation" />
<input-file name="oncvpsp-input">
<![CDATA[# atsym z nc nv iexc psfile
Ba 56 9 3 -116133 upf
# n l f
1 0 2.0
2 0 2.0
2 1 6.0
3 0 2.0
3 1 6.0
3 2 10.0
4 0 2.0
4 1 6.0
4 2 10.0
5 0 2.0
5 1 6.0
6 0 2.0
# lmax
2
# l rc ep ncon nbas qcut
0 1.95 0.0 3 8 5.2
1 1.8 0.0 4 8 6.6
2 1.9 0.0 4 9 6.8
# lloc lpopt rc5 dvloc0
4 5 1.8 0.0
# l nproj debl
0 2 1.0
1 2 2.5
2 2 3.0
# icmod fcfact rcfact
3 5.0 1.25
# epsh1 epsh2 depsh
-12.0 12.0 0.02
# rlmax drl
6.0 0.01
 0
]]>
</input-file>
</provenance>
<pseudo-atom-spec atomic-label="Ba" atomic-number="56" z-pseudo="10"
 flavor="Hamann&apos;s oncvpsp" relativity="scalar" spin-dft="no"
 core-corrections="yes">
<annotation pseudo-energy="-25.6445485587" />
<exchange-correlation>
<annotation oncvpsp-xc-code="-116133" oncvpsp-xc-type="libxc-interface" />
<libxc-info number-of-functionals="2">
<functional name="Perdew, Burke &amp; Ernzerhof SOL (GGA)" type="exchange"
 id="116" />
<functional name="Perdew, Burke &amp; Ernzerhof SOL (GGA)" type="correlation"
 id="133" />
</libxc-info>
</exchange-correlation>
<valence-configuration total-valence-charge="10">
<shell n="5" l="s" occupation="2" />
<shell n="5" l="p" occupation="6" />
<shell n="6" l="s" occupation="2" />
</valence-configuration>
</pseudo-atom-spec>
<grid npts="457">
<annotation type="sampled from oncvpsp log grid"
 recipe="r(i:1..N) = r1*exp(a*(i-1)) + r=0; resampled"
 recipe-cont="r1: scale; a: step" scale="0.892857142857E-05"
 step="0.119285708653E-01" delta="0.500000000000E-02" rmax="44.0559055307" />
<grid-data>
  0.000000000000E+00  5.030765996809E-03  1.004856027829E-02  1.507444276529E-02
  2.031206510006E-02  2.547908439618E-02  3.083699266043E-02  3.600963173750E-02
  4.105861707579E-02  4.626040627112E-02  5.150318121329E-02  5.666020677615E-02
  6.233360651298E-02  6.776194178895E-02  7.278953042278E-02  7.819014035445E-02
  8.399144785162E-02  8.915334250897E-02  9.463247370808E-02  1.004483379769E-01
  1.066216300490E-01  1.118323285593E-01  1.172976787660E-01  1.230301257351E-01
  1.290427227344E-01  1.353491609572E-01  1.419638006982E-01  1.471360711987E-01
  1.524967867957E-01  1.580528132467E-01  1.638112664542E-01  1.697795215795E-01
  1.759652224887E-01  1.823762915423E-01  1.890209397420E-01  1.959076772469E-01
  2.030453242728E-01  2.104430223891E-01  2.155239587216E-01  2.207275691810E-01
  2.260568156113E-01  2.315147313674E-01  2.371044230416E-01  2.428290722315E-01
  2.486919373514E-01  2.546963554868E-01  2.608457442937E-01  2.671436039439E-01
  2.735935191176E-01  2.801991610431E-01  2.869642895874E-01  2.938927553952E-01
  3.009885020814E-01  3.082555684757E-01  3.156980909209E-01  3.233203056281E-01
  3.311265510872E-01  3.391212705367E-01  3.473090144925E-01  3.556944433384E-01
  3.642823299784E-01  3.730775625534E-01  3.820851472237E-01  3.913102110182E-01
  4.007580047531E-01  4.104339060198E-01  4.203434222468E-01  4.253875433137E-01
  4.304921938335E-01  4.356581001595E-01  4.408859973614E-01  4.461766293297E-01
  4.515307488817E-01  4.569491178683E-01  4.624325072827E-01  4.679816973701E-01
  4.735974777385E-01  4.792806474714E-01  4.850320152411E-01  4.908523994239E-01
  4.967426282170E-01  5.027035397556E-01  5.087359822327E-01  5.148408140195E-01
  5.210189037877E-01  5.272711306332E-01  5.335983842008E-01  5.400015648112E-01
  5.464815835889E-01  5.530393625920E-01  5.596758349431E-01  5.663919449624E-01
  5.731886483020E-01  5.800669120816E-01  5.870277150266E-01  5.940720476069E-01
  6.012009121782E-01  6.084153231243E-01  6.157163070018E-01  6.231049026858E-01
  6.305821615181E-01  6.381491474563E-01  6.458069372257E-01  6.535566204725E-01
  6.613992999181E-01  6.693360915171E-01  6.773681246153E-01  6.854965421107E-01
  6.937225006161E-01  7.020471706235E-01  7.104717366709E-01  7.189973975110E-01
  7.276253662811E-01  7.363568706765E-01  7.451931531246E-01  7.541354709621E-01
  7.631850966137E-01  7.723433177730E-01  7.816114375863E-01  7.909907748373E-01
  8.004826641354E-01  8.100884561050E-01  8.198095175783E-01  8.296472317892E-01
  8.396029985707E-01  8.496782345535E-01  8.598743733682E-01  8.701928658486E-01
  8.806351802388E-01  8.912028024016E-01  9.018972360304E-01  9.127200028628E-01
  9.236726428972E-01  9.347567146119E-01  9.459737951873E-01  9.573254807295E-01
  9.688133864983E-01  9.804391471363E-01  9.922044169019E-01  1.004110869905E+00
  1.016160200344E+00  1.028354122748E+00  1.040694372221E+00  1.053182704687E+00
  1.065820897144E+00  1.078610747909E+00  1.091554076884E+00  1.104652725807E+00
  1.117908558516E+00  1.131323461219E+00  1.144899342753E+00  1.158638134866E+00
  1.172541792485E+00  1.186612293995E+00  1.200851641522E+00  1.215261861221E+00
  1.229845003555E+00  1.244603143598E+00  1.259538381321E+00  1.274652841897E+00
  1.289948676000E+00  1.305428060112E+00  1.321093196833E+00  1.336946315195E+00
  1.352989670978E+00  1.369225547029E+00  1.385656253594E+00  1.402284128637E+00
  1.419111538180E+00  1.436140876639E+00  1.453374567158E+00  1.470815061964E+00
  1.488464842708E+00  1.506326420820E+00  1.524402337870E+00  1.542695165924E+00
  1.561207507916E+00  1.579941998011E+00  1.598901301987E+00  1.618088117611E+00
  1.637505175022E+00  1.657155237122E+00  1.677041099968E+00  1.697165593167E+00
  1.717531580285E+00  1.738141959249E+00  1.758999662760E+00  1.780107658713E+00
  1.801468950617E+00  1.823086578025E+00  1.844963616961E+00  1.867103180365E+00
  1.889508418529E+00  1.912182519551E+00  1.935128709786E+00  1.958350254303E+00
  1.981850457355E+00  2.005632662843E+00  2.029700254797E+00  2.054056657855E+00
  2.078705337749E+00  2.103649801802E+00  2.128893599424E+00  2.154440322617E+00
  2.180293606488E+00  2.206457129766E+00  2.232934615323E+00  2.259729830707E+00
  2.286846588676E+00  2.314288747740E+00  2.342060212713E+00  2.370164935265E+00
  2.398606914488E+00  2.427390197462E+00  2.456518879832E+00  2.485997106390E+00
  2.515829071666E+00  2.546019020526E+00  2.576571248773E+00  2.607490103758E+00
  2.638779985003E+00  2.670445344823E+00  2.702490688961E+00  2.734920577229E+00
  2.767739624155E+00  2.800952499645E+00  2.834563929641E+00  2.868578696797E+00
  2.903001641158E+00  2.937837660852E+00  2.973091712782E+00  3.008768813336E+00
  3.044874039096E+00  3.081412527565E+00  3.118389477896E+00  3.155810151630E+00
  3.193679873450E+00  3.232004031931E+00  3.270788080314E+00  3.310037537278E+00
  3.349757987726E+00  3.389955083578E+00  3.430634544581E+00  3.471802159116E+00
  3.513463785026E+00  3.555625350446E+00  3.598292854651E+00  3.641472368907E+00
  3.685170037334E+00  3.729392077782E+00  3.774144782715E+00  3.819434520108E+00
  3.865267734349E+00  3.911650947161E+00  3.958590758527E+00  4.006093847630E+00
  4.054166973801E+00  4.102816977487E+00  4.152050781217E+00  4.201875390591E+00
  4.252297895278E+00  4.303325470022E+00  4.354965375662E+00  4.407224960170E+00
  4.460111659692E+00  4.513632999608E+00  4.567796595604E+00  4.622610154751E+00
  4.678081476608E+00  4.734218454327E+00  4.791029075779E+00  4.848521424688E+00
  4.906703681785E+00  4.965584125966E+00  5.025171135478E+00  5.085473189103E+00
  5.146498867373E+00  5.208256853781E+00  5.270755936027E+00  5.334005007259E+00
  5.398013067346E+00  5.462789224154E+00  5.528342694844E+00  5.594682807182E+00
  5.661819000868E+00  5.729760828879E+00  5.798517958825E+00  5.868100174331E+00
  5.938517376423E+00  6.009779584940E+00  6.081896939959E+00  6.154879703239E+00
  6.228738259678E+00  6.303483118794E+00  6.379124916219E+00  6.455674415214E+00
  6.533142508197E+00  6.611540218295E+00  6.690878700915E+00  6.771169245326E+00
  6.852423276269E+00  6.934652355585E+00  7.017868183852E+00  7.102082602058E+00
  7.187307593283E+00  7.273555284402E+00  7.360837947815E+00  7.449168003189E+00
  7.538558019227E+00  7.629020715458E+00  7.720568964043E+00  7.813215791612E+00
  7.906974381111E+00  8.001858073684E+00  8.097880370569E+00  8.195054935015E+00
  8.293395594236E+00  8.392916341366E+00  8.493631337463E+00  8.595554913512E+00
  8.698701572474E+00  8.803085991344E+00  8.908723023240E+00  9.015627699519E+00
  9.123815231913E+00  9.233301014696E+00  9.344100626873E+00  9.456229834395E+00
  9.569704592408E+00  9.684541047517E+00  9.800755540087E+00  9.918364606568E+00
  1.003738498185E+01  1.015783360163E+01  1.027972760485E+01  1.040308433611E+01
  1.052792134814E+01  1.065425640432E+01  1.078210748117E+01  1.091149277094E+01
  1.104243068419E+01  1.117493985241E+01  1.130903913063E+01  1.144474760020E+01
  1.158208457140E+01  1.172106958626E+01  1.186172242130E+01  1.200406309035E+01
  1.214811184744E+01  1.229388918961E+01  1.244141585988E+01  1.259071285020E+01
  1.274180140440E+01  1.289470302125E+01  1.304943945751E+01  1.320603273100E+01
  1.336450512377E+01  1.352487918526E+01  1.368717773548E+01  1.385142386831E+01
  1.401764095473E+01  1.418585264618E+01  1.435608287794E+01  1.452835587247E+01
  1.470269614294E+01  1.487912849666E+01  1.505767803862E+01  1.523837017508E+01
  1.542123061718E+01  1.560628538459E+01  1.579356080920E+01  1.598308353891E+01
  1.617488054138E+01  1.636897910788E+01  1.656540685717E+01  1.676419173946E+01
  1.696536204033E+01  1.716894638481E+01  1.737497374143E+01  1.758347342633E+01
  1.779447510744E+01  1.800800880873E+01  1.822410491444E+01  1.844279417341E+01
  1.866410770349E+01  1.888807699593E+01  1.911473391989E+01  1.934411072692E+01
  1.957624005565E+01  1.981115493632E+01  2.004888879555E+01  2.028947546110E+01
  2.053294916663E+01  2.077934455663E+01  2.102869669131E+01  2.128104105161E+01
  2.153641354422E+01  2.179485050676E+01  2.205638871284E+01  2.232106537739E+01
  2.258891816192E+01  2.285998517986E+01  2.313430500202E+01  2.341191666205E+01
  2.369285966199E+01  2.397717397793E+01  2.426490006567E+01  2.455607886646E+01
  2.485075181285E+01  2.514896083461E+01  2.545074836462E+01  2.575615734500E+01
  2.606523123314E+01  2.637801400794E+01  2.669455017603E+01  2.701488477814E+01
  2.733906339548E+01  2.766713215623E+01  2.799913774210E+01  2.833512739501E+01
  2.867514892375E+01  2.901925071083E+01  2.936748171936E+01  2.971989150000E+01
  3.007653019800E+01  3.043744856037E+01  3.080269794310E+01  3.117233031841E+01
  3.154639828223E+01  3.192495506162E+01  3.230805452236E+01  3.269575117663E+01
  3.308810019075E+01  3.348515739304E+01  3.388697928175E+01  3.429362303313E+01
  3.470514650953E+01  3.512160826765E+01  3.554306756686E+01  3.596958437766E+01
  3.640121939019E+01  3.683803402287E+01  3.728009043115E+01  3.772745151632E+01
  3.818018093452E+01  3.863834310573E+01  3.910200322300E+01  3.957122726168E+01
  4.004608198882E+01  4.052663497268E+01  4.101295459236E+01  4.150511004746E+01
  4.200317136803E+01  4.250720942445E+01  4.301729593754E+01  4.353350348879E+01
  4.405590553066E+01
</grid-data>
</grid>
<valence-charge total-charge="10" is-unscreening-charge="yes"
 rescaled-to-z-pseudo="no">
<radfunc>
<data npts="457">
  2.593280082042E-03  2.599084923877E-03  2.616472718462E-03  2.645598943274E-03
  2.688602742221E-03  2.743933260556E-03  2.815198824593E-03  2.897834797340E-03
  2.992067159264E-03  3.103722116912E-03  3.231860988539E-03  3.373893586563E-03
  3.549390575837E-03  3.737185919041E-03  3.929405354182E-03  4.156559018106E-03
  4.425791884237E-03  4.688604849210E-03  4.992948722703E-03  5.346293591132E-03
  5.757646405060E-03  6.135742063055E-03  6.564518214919E-03  7.051725869518E-03
  7.606448025633E-03  8.239347491114E-03  8.962962703003E-03  9.573994506694E-03
  1.025149250096E-02  1.100359612238E-02  1.183953112076E-02  1.276976145326E-02
  1.380616263875E-02  1.496221952256E-02  1.625325177199E-02  1.769667082847E-02
  1.931227248249E-02  2.112256970948E-02  2.245010488663E-02  2.388391920913E-02
  2.543320918129E-02  2.710799721717E-02  2.891920551648E-02  3.087873618078E-02
  3.299955801254E-02  3.529580045277E-02  3.778285512341E-02  4.047748544527E-02
  4.339794480092E-02  4.656410370282E-02  4.999758640650E-02  5.372191737712E-02
  5.776267796945E-02  6.214767361497E-02  6.690711172093E-02  7.207379036971E-02
  7.768329775862E-02  8.377422213386E-02  9.038837174097E-02  9.757100403112E-02
  1.053710630180E-01  1.138414232668E-01  1.230391385025E-01  1.330256922401E-01
  1.438672471517E-01  1.556348890827E-01  1.684048607000E-01  1.751910099437E-01
  1.822587786846E-01  1.896192404590E-01  1.972838271605E-01  2.052643331589E-01
  2.135729186670E-01  2.222221122578E-01  2.312248124306E-01  2.405942881103E-01
  2.503441779625E-01  2.604884883943E-01  2.710415901052E-01  2.820182130392E-01
  2.934334395859E-01  3.053026958629E-01  3.176417409071E-01  3.304666535902E-01
  3.437938170643E-01  3.576399005355E-01  3.720218381511E-01  3.869568047810E-01
  4.024621884595E-01  4.185555592510E-01  4.352546342915E-01  4.525772387524E-01
  4.705412624672E-01  4.891646119564E-01  5.084651575837E-01  5.284606755731E-01
  5.491687846191E-01  5.706068768224E-01  5.927920426901E-01  6.157409899460E-01
  6.394699559093E-01  6.639946132110E-01  6.893299686407E-01  7.154902549343E-01
  7.424888153437E-01  7.703379808607E-01  7.990489400058E-01  8.286316011372E-01
  8.590944472845E-01  8.904443835689E-01  9.226865773391E-01  9.558242912188E-01
  9.898587093465E-01  1.024788757172E+00  1.060610915275E+00  1.097319027766E+00
  1.134904105963E+00  1.173354128124E+00  1.212653836187E+00  1.252784530569E+00
  1.293723864243E+00  1.335445637450E+00  1.377919594568E+00  1.421111224811E+00
  1.464981568600E+00  1.509487031614E+00  1.554579208687E+00  1.600204719880E+00
  1.646305061221E+00  1.692816472730E+00  1.739669826521E+00  1.786790537839E+00
  1.834098502064E+00  1.881508060710E+00  1.928927999585E+00  1.976261582231E+00
  2.023406621799E+00  2.070255594424E+00  2.116695797099E+00  2.162609552875E+00
  2.207874466023E+00  2.252363729545E+00  2.295946487074E+00  2.338488250858E+00
  2.379851377038E+00  2.419895598931E+00  2.458478618442E+00  2.495456755084E+00
  2.530685651338E+00  2.564021032362E+00  2.595319517171E+00  2.624439477574E+00
  2.651241940221E+00  2.675591526169E+00  2.697357421432E+00  2.716414371031E+00
  2.732643688127E+00  2.745934268925E+00  2.756183603243E+00  2.763298769851E+00
  2.767197405104E+00  2.767808632852E+00  2.765073943279E+00  2.758948008167E+00
  2.749399420092E+00  2.736411343322E+00  2.719982064676E+00  2.700125433328E+00
  2.676871179530E+00  2.650265103473E+00  2.620369126999E+00  2.587261202593E+00
  2.551035076046E+00  2.511799901305E+00  2.469679708303E+00  2.424812726980E+00
  2.377350573096E+00  2.327457303947E+00  2.275308354387E+00  2.221089365856E+00
  2.164994923096E+00  2.107227215022E+00  2.047994637634E+00  1.987510357892E+00
  1.925990858096E+00  1.863654480474E+00  1.800719991358E+00  1.737405183557E+00
  1.673925534327E+00  1.610492665896E+00  1.547311812356E+00  1.484578923662E+00
  1.422479652887E+00  1.361189092682E+00  1.300871050537E+00  1.241677590928E+00
  1.183744523101E+00  1.127178783758E+00  1.072062777433E+00  1.018474923925E+00
  9.664797281845E-01  9.161312291579E-01  8.674730041416E-01  8.205386765722E-01
  7.753524147903E-01  7.319294533784E-01  6.902766319602E-01  6.503929466146E-01
  6.122701093215E-01  5.758931111392E-01  5.412407851122E-01  5.082863652079E-01
  4.769980378941E-01  4.473394833206E-01  4.192704031051E-01  3.927470326699E-01
  3.677226355449E-01  3.441479779142E-01  3.219717817372E-01  3.011411550594E-01
  2.816019983769E-01  2.632993861485E-01  2.461779227679E-01  2.301820725216E-01
  2.152564632529E-01  2.013461636447E-01  1.883969342155E-01  1.763554522936E-01
  1.651695114039E-01  1.547881956607E-01  1.451620299133E-01  1.362431065462E-01
  1.279851899820E-01  1.203438000839E-01  1.132762758018E-01  1.067418205460E-01
  1.007015309047E-01  9.511841043076E-02  8.995737029648E-02  8.518521863456E-02
  8.077064033145E-02  7.668416890371E-02  7.289815187125E-02  6.938671075785E-02
  6.612569653468E-02  6.309264101982E-02  6.026670450464E-02  5.762861973088E-02
  5.516063230620E-02  5.284643771068E-02  5.067111518206E-02  4.862105893153E-02
  4.668390729401E-02  4.484847052728E-02  4.310465802673E-02  4.144340571690E-02
  3.985660432673E-02  3.833702916740E-02  3.687827192627E-02  3.547467488092E-02
  3.412126783347E-02  3.281370797348E-02  3.154822280013E-02  3.032155617156E-02
  2.913091749994E-02  2.797393407289E-02  2.684860645395E-02  2.575326689390E-02
  2.468654066940E-02  2.364731025471E-02  2.263468222421E-02  2.164795677757E-02
  2.068659977482E-02  1.975021716537E-02  1.883853169166E-02  1.795136174566E-02
  1.708860225418E-02  1.625020746635E-02  1.543617551535E-02  1.464653462468E-02
  1.388133082933E-02  1.314061708326E-02  1.242444362752E-02  1.173284949916E-02
  1.106585506979E-02  1.042345551454E-02  9.805615128054E-03  9.212262422031E-03
  8.643285959446E-03  8.098530900932E-03  7.577796257701E-03  7.080832860424E-03
  6.607342056009E-03  6.156975197366E-03  5.729333840173E-03  5.323970765851E-03
  4.940391753658E-03  4.578058079269E-03  4.236389681909E-03  3.914768920756E-03
  3.612544823637E-03  3.329037718328E-03  3.063544129819E-03  2.815341825691E-03
  2.583694895869E-03  2.367858761552E-03  2.167085020030E-03  1.980626046129E-03
  1.807739286275E-03  1.647691196496E-03  1.499760790538E-03  1.363242777910E-03
  1.237450283925E-03  1.121717154272E-03  1.015399855408E-03  9.178789890416E-04
  8.285604443194E-04  7.468762151600E-04  6.722849126815E-04  6.042720040088E-04
  5.423498091267E-04  4.860572870151E-04  4.349596412422E-04  3.886477736373E-04
  3.467376127432E-04  3.088693415794E-04  2.747065469239E-04  2.439353099280E-04
  2.162632554894E-04  1.914185754770E-04  1.691490386841E-04  1.492209983162E-04
  1.314184059223E-04  1.155418389848E-04  1.014075478867E-04  8.884652669203E-05
  7.770361108686E-05  6.783660593607E-05  5.911544418462E-05  5.142137825981E-05
  4.464620468768E-05  3.869152229920E-05  3.346802414937E-05  2.889482308387E-05
  2.489881074642E-05  2.141404971007E-05  1.838119832599E-05  1.574696780533E-05
  1.346361097617E-05  1.148844208642E-05  9.783386951430E-06  8.314562672692E-06
  7.051886081411E-06  5.968709990124E-06  5.041486267698E-06  4.249454690758E-06
  3.574356468993E-06  3.000171294675E-06  2.512876729138E-06  2.100228711701E-06
  1.751561960051E-06  1.457609025337E-06  1.210336769997E-06  1.002799051006E-06
  8.290044150190E-07  6.837976438831E-07  5.627540280371E-07  4.620852904258E-07
  3.785561334497E-07  3.094104351152E-07  2.523061768336E-07  2.052582432396E-07
  1.665882930524E-07  1.348809585644E-07  1.089456890978E-07  8.778361012216E-08
  7.055882416230E-08  5.657363175403E-08  4.524720021101E-08  3.609725463090E-08
  2.872440924407E-08  2.279879781959E-08  1.804869936841E-08  1.425088985607E-08
  1.122248212651E-08  8.814044849563E-09  6.903817166897E-09  5.392858973694E-09
  4.200997596461E-09  3.263450181853E-09  2.528017569051E-09  1.952759952466E-09
  1.504077422017E-09  1.155129659400E-09  8.845388278461E-10  6.753281687600E-10
  5.140561505409E-10  3.901123323116E-10  2.951465273569E-10  2.226074867312E-10
  1.673712716422E-10  1.254428330434E-10  9.371714829262E-11  6.978864899089E-11
  5.179967428728E-11  3.832035562507E-11  2.825373082782E-11  2.076104007764E-11
  1.520311058316E-11  1.109452240348E-11  8.067892341207E-12  5.846139436798E-12
  4.221024306098E-12  3.036602243296E-12  2.176510903138E-12  1.554239439827E-12
  1.105707216845E-12  7.836249372952E-13  5.532261787864E-13  3.890485441201E-13
  2.725156372031E-13  1.901276689523E-13  1.321128067132E-13  9.142592945207E-14
  6.300827932388E-14  4.324224733694E-14  2.955150831737E-14  2.010897295073E-14
  1.362438084691E-14  9.190472374616E-15  6.172062435239E-15  4.126398480063E-15
  2.746231024202E-15  1.819300362956E-15  1.199635381957E-15  7.873130396749E-16
  5.142501616061E-16  3.342761863424E-16  2.162296975440E-16  1.391806069022E-16
  8.913943272469E-17  5.680188109608E-17  3.601064686105E-17  2.271160344168E-17
  1.424906382594E-17  8.892404099891E-18  5.519740979730E-18  3.407664595503E-18
  2.092209929336E-18  1.277424462697E-18  7.755640259197E-19  4.681909776475E-19
  2.810099446528E-19  0.000000000000E+00  0.000000000000E+00  0.000000000000E+00
  0.000000000000E+00
</data>
</radfunc>
</valence-charge>
<pseudocore-charge matching-radius="1.25953838132"
 number-of-continuous-derivatives="4">
<annotation model-charge-form="Teter function with specified parameters" />
<radfunc>
<data npts="290">
  1.470827663586E+01  1.470780218066E+01  1.470638379087E+01  1.470401715007E+01
  1.470054387172E+01  1.469611105305E+01  1.469045977769E+01  1.468398622598E+01
  1.467670440372E+01  1.466820861927E+01  1.465862720537E+01  1.464820659041E+01
  1.463560393894E+01  1.462243153186E+01  1.460926216585E+01  1.459407990731E+01
  1.457657954103E+01  1.455997363735E+01  1.454128512589E+01  1.452025584519E+01
  1.449659644629E+01  1.447555872231E+01  1.445244751211E+01  1.442706208568E+01
  1.439918304392E+01  1.436857074389E+01  1.433496362641E+01  1.430762228997E+01
  1.427830676555E+01  1.424687883699E+01  1.421319127729E+01  1.417708736508E+01
  1.413840039235E+01  1.409695316630E+01  1.405255750951E+01  1.400501376280E+01
  1.395411029683E+01  1.389962303912E+01  1.386119072882E+01  1.382098709616E+01
  1.377893597899E+01  1.373495848951E+01  1.368897297399E+01  1.364089497893E+01
  1.359063722450E+01  1.353810958633E+01  1.348321908703E+01  1.342586989851E+01
  1.336596335671E+01  1.330339799009E+01  1.323806956373E+01  1.316987114072E+01
  1.309869316277E+01  1.302442355223E+01  1.294694783767E+01  1.286614930539E+01
  1.278190917947E+01  1.269410683306E+01  1.260262003363E+01  1.250732522540E+01
  1.240809785187E+01  1.230481272193E+01  1.219734442283E+01  1.208556778351E+01
  1.196935839196E+01  1.184859317025E+01  1.172315101068E+01  1.165863894296E+01
  1.159291347701E+01  1.152596035195E+01  1.145776557398E+01  1.138831544437E+01
  1.131759658872E+01  1.124559598741E+01  1.117230100724E+01  1.109769943439E+01
  1.102177950866E+01  1.094452995893E+01  1.086594004000E+01  1.078599957067E+01
  1.070469897321E+01  1.062202931406E+01  1.053798234594E+01  1.045255055122E+01
  1.036572718662E+01  1.027750632913E+01  1.018788292336E+01  1.009685282996E+01
  1.000441287538E+01  9.910560902756E+00  9.815295823977E+00  9.718617672785E+00
  9.620527658958E+00  9.521028223429E+00  9.420123094309E+00  9.317817343704E+00
  9.214117445254E+00  9.109031332270E+00  9.002568456375E+00  8.894739846498E+00
  8.785558168110E+00  8.675037782524E+00  8.563194806124E+00  8.450047169321E+00
  8.335614675059E+00  8.219919056671E+00  8.102984034848E+00  7.984835373508E+00
  7.865500934296E+00  7.745010729466E+00  7.623396972848E+00  7.500694128626E+00
  7.376938957581E+00  7.252170560503E+00  7.126430418410E+00  6.999762429208E+00
  6.872212940440E+00  6.743830777702E+00  6.614667268352E+00  6.484776260072E+00
  6.354214133868E+00  6.223039811058E+00  6.091314753803E+00  5.959102958719E+00
  5.826470943112E+00  5.693487723357E+00  5.560224784965E+00  5.426756043856E+00
  5.293157798379E+00  5.159508671620E+00  5.025889543553E+00  4.892383472594E+00
  4.759075606150E+00  4.626053079771E+00  4.493404904531E+00  4.361221842324E+00
  4.229596268765E+00  4.098622023454E+00  3.968394247407E+00  3.839009207495E+00
  3.710564107830E+00  3.583156888064E+00  3.456886008672E+00  3.331850223364E+00
  3.208148338853E+00  3.085878962307E+00  2.965140236920E+00  2.846029566129E+00
  2.728643327141E+00  2.613076574534E+00  2.499422734831E+00  2.387773293076E+00
  2.278217472573E+00  2.170841909080E+00  2.065730320898E+00  1.962963176432E+00
  1.862617360925E+00  1.764765844223E+00  1.669477351546E+00  1.576816039370E+00
  1.486841178648E+00  1.399606847695E+00  1.315161637177E+00  1.233548369703E+00
  1.154803836600E+00  1.078958554504E+00  1.006036544389E+00  9.360551357043E-01
  8.690247982201E-01  8.049490041469E-01  7.438241230011E-01  6.856393515630E-01
  6.303766811169E-01  5.780109039671E-01  5.285096609900E-01  4.818335317069E-01
  4.379361680523E-01  3.967644726594E-01  3.582588220963E-01  3.223533350608E-01
  2.889761850859E-01  2.580499568194E-01  2.294920444294E-01  2.032150901569E-01
  1.791274604926E-01  1.571337569019E-01  1.371353574794E-01  1.190309853736E-01
  1.027172993111E-01  8.808950106580E-02  7.504195427949E-02  6.346880865549E-02
  5.326462322694E-02  4.432498215972E-02  3.654709639465E-02  2.983038437681E-02
  2.407702516918E-02  1.919247741099E-02  1.508595786395E-02  1.167087369491E-02
  8.865203172259E-03  6.591820104011E-03  4.778758111843E-03  3.359411709783E-03
  2.272672126030E-03  1.462996856448E-03  8.804130492554E-04  4.804559702962E-04
  2.240449616973E-04  7.730045607596E-05  1.130671421988E-05  1.825985754609E-06
  2.897071894702E-05  7.684123751452E-05  1.331369311132E-04  1.887494471433E-04
  2.373466040160E-04  2.749557548801E-04  2.995551073410E-04  3.106810476390E-04
  3.090588339807E-04  2.962631286363E-04  2.744137561197E-04  2.459108376982E-04
  2.132121007551E-04  1.786537417880E-04  1.443147856819E-04  1.119234859064E-04
  8.280300569157E-05  5.785246230138E-05  3.755845385099E-05  2.203146187762E-05
  1.106106422833E-05  4.183720675173E-06  7.570129009725E-07  3.462095656411E-08
  1.236974530246E-06  3.613389379407E-06  6.492534176953E-06  9.319207766448E-06
  1.167657174396E-05  1.329410643489E-05  1.404257022725E-05  1.391808077535E-05
  1.301805182244E-05  1.151207751870E-05  9.610942588983E-06  7.536757919481E-06
  5.496804421747E-06  3.663059911519E-06  2.158646322590E-06  1.051640379131E-06
  3.559163498115E-07  3.800798257809E-08  2.845106014285E-08  2.357442517255E-07
  5.609682354725E-07  9.112308852667E-07  1.210434180367E-06  1.406338634955E-06
  1.473468770593E-06  1.411984524265E-06  1.243164418042E-06  1.002542087177E-06
  7.319616076625E-07  4.718466571709E-07  2.548192814420E-07  1.014884376505E-07
  1.881153478342E-08  0.000000000000E+00  0.000000000000E+00  0.000000000000E+00
  0.000000000000E+00  0.000000000000E+00  0.000000000000E+00  0.000000000000E+00
  0.000000000000E+00  0.000000000000E+00  0.000000000000E+00  0.000000000000E+00
  0.000000000000E+00  0.000000000000E+00  0.000000000000E+00  0.000000000000E+00
  0.000000000000E+00  0.000000000000E+00  0.000000000000E+00  0.000000000000E+00
  0.000000000000E+00  0.000000000000E+00
</data>
</radfunc>
</pseudocore-charge>
<semilocal-potentials set="scalar_relativistic">
<slps n="5" l="s" rc="1.95835025430" eref="-1.23858108058">
<radfunc>
<data npts="290">
  1.042743634102E+02  1.041658719795E+02  1.038427296278E+02  1.033075207919E+02
  1.025309065950E+02  1.015547453096E+02  1.003340349420E+02  9.896743299662E+01
  9.746923646835E+01  9.577140092249E+01  9.391844788058E+01  9.197390104429E+01
  8.971508897045E+01  8.745628109406E+01  8.529567104312E+01  8.291795919718E+01
  8.031680707427E+01  7.797649507618E+01  7.548001304504E+01  7.283072419354E+01
  7.003471719839E+01  6.769820906812E+01  6.527945209698E+01  6.278561044107E+01
  6.022500626556E+01  5.760703990968E+01  5.494207532045E+01  5.291920902165E+01
  5.088114380873E+01  4.883299767817E+01  4.677999450047E+01  4.472741154162E+01
  4.268052584663E+01  4.064456064206E+01  3.862463291363E+01  3.662570327124E+01
  3.465252912952E+01  3.270962211272E+01  3.143326651789E+01  3.017342475787E+01
  2.893120690919E+01  2.770765403434E+01  2.650373570477E+01  2.532034807386E+01
  2.415831249380E+01  2.301837466374E+01  2.190120429117E+01  2.080739524331E+01
  1.973746616089E+01  1.869186150321E+01  1.767095299012E+01  1.667504140464E+01
  1.570435871825E+01  1.475907050008E+01  1.383927857102E+01  1.294502386418E+01
  1.207628945392E+01  1.123300371729E+01  1.041504359299E+01  9.622237905796E+00
  8.854370725972E+00  8.111184736401E+00  7.392384582580E+00  6.697640183570E+00
  6.026589984896E+00  5.378844137293E+00  4.753987588082E+00  4.450006943709E+00
  4.151583074826E+00  3.858658327227E+00  3.571174013622E+00  3.289070497812E+00
  3.012287277087E+00  2.740763062863E+00  2.474435859550E+00  2.213243041691E+00
  1.957121429393E+00  1.706007362084E+00  1.459836770645E+00  1.218545247967E+00
  9.820681179805E-01  7.503405032339E-01  5.232973910780E-01  3.008736985327E-01
  8.300433591207E-02 -1.303757307107E-01 -3.393314181176E-01 -5.439274655522E-01
 -7.442283752300E-01 -9.402983536669E-01 -1.132201253736E+00 -1.320000517366E+00
 -1.503759118793E+00 -1.683539508288E+00 -1.859403556277E+00 -2.031412497775E+00
 -2.199626877075E+00 -2.364106492622E+00 -2.524910342019E+00 -2.682096567127E+00
 -2.835722399218E+00 -2.985844104165E+00 -3.132516927659E+00 -3.275795040454E+00
 -3.415731483682E+00 -3.552378114251E+00 -3.685785550406E+00 -3.816003117525E+00
 -3.943078794242E+00 -4.067059159028E+00 -4.187989337369E+00 -4.305912949709E+00
 -4.420872060340E+00 -4.532907127469E+00 -4.642056954686E+00 -4.748358644113E+00
 -4.851847551498E+00 -4.952557243598E+00 -5.050519458161E+00 -5.145764066895E+00
 -5.238319041787E+00 -5.328210425212E+00 -5.415462304249E+00 -5.500096789693E+00
 -5.582134000242E+00 -5.661592052401E+00 -5.738487056659E+00 -5.812833120539E+00
 -5.884642359153E+00 -5.953924913958E+00 -6.020688980416E+00 -6.084940845346E+00
 -6.146684934780E+00 -6.205923873188E+00 -6.262658554979E+00 -6.316888229217E+00
 -6.368610598528E+00 -6.417821933162E+00 -6.464517201191E+00 -6.508690215769E+00
 -6.550333800318E+00 -6.589439972427E+00 -6.626000147062E+00 -6.660005359544E+00
 -6.691446508475E+00 -6.720314618500E+00 -6.746601122436E+00 -6.770298161852E+00
 -6.791398904689E+00 -6.809897877928E+00 -6.825791312658E+00 -6.839077498143E+00
 -6.849757140701E+00 -6.857833722286E+00 -6.863313852702E+00 -6.866207608356E+00