Siesta Version  : siesta-psml-R1--709-594
Architecture    : unknown
Compiler version: GNU Fortran (Ubuntu 7.4.0-1ubuntu1~18.04.1) 7.4.0
Compiler flags  : gfortran -O2 -fPIC -ftree-vectorize
PP flags        : -D__NO_PROC_POINTERS__ -DFC_HAVE_ABORT  -DSIESTA__DIAG_2STAGE
Libraries       : libsiestaLAPACK.a libsiestaBLAS.a
SERIAL version

* Running in serial mode
>> Start of run:   8-APR-2020  12:37:14

                           ***********************       
                           *  WELCOME TO SIESTA  *       
                           ***********************       

reinit: Reading from standard input
reinit: Dumped input in INPUT_TMP.47228
************************** Dump of input data file ****************************
SystemName      Barium titanate (BaTiO3) cubic structure
#               Don't alter anything in this file.
#               Cubic phase
#               PBE-SOL functional
#               Theoretical lattice constant obtained for the Hamann pseudos
#               (taken from the pseudo-dojo web page)
#               Mesh Cutoff: 600 Ry
#               Monkhorst-Pack grid: 6 x 6 x 6 ; displaced 0.5 0.5 0.5
SystemLabel	BaTiO3
NumberOfSpecies	3
NumberOfAtoms	5
%block ChemicalSpeciesLabel
      1      56     Ba
      2      22     Ti
      3       8     O
%endblock ChemicalSpeciesLabel
%block PS.lmax
   Ba    3
   Ti    3
    O    3
%endblock PS.lmax
PAO.Basis  < BaTiO3basis.fdf
LatticeConstant       4.1895 Ang    # Theoretical lattice constant for the
                                      #    cubic phase
%block LatticeVectors
  1.00  0.00  0.00
  0.00  1.00  0.00
  0.00  0.00  1.00
%endblock LatticeVectors
AtomicCoordinatesFormat	     Fractional
%block AtomicCoordinatesAndAtomicSpecies
  0.00  0.00  0.00       1     137.327      Ba
  0.50  0.50  0.50       2      47.867      Ti
  0.00  0.50  0.50       3      15.9994     O
  0.50  0.00  0.50       3      15.9994     O
  0.50  0.50  0.00       3      15.9994     O
%endblock AtomicCoordinatesAndAtomicSpecies
%block kgrid_Monkhorst_Pack
   6  0  0  0.5
   0  6  0  0.5
   0  0  6  0.5
%endblock kgrid_Monkhorst_Pack
%block XC.cocktail                  # Perdew-Burke-Ernzerhof SOL functional taken from the libxc library
2
GGA LIBXC-0116-GGA_X_PBE_SOL  1.0  0.0
GGA LIBXC-0133-GGA_C_PBE_SOL  0.0  1.0
%endblock XC.cocktail
MeshCutoff             600 Ry      # Defines the plane wave cutoff for the grid
DM.NumberPulay         3           # It controls the Pulay convergence
                                   #   accelerator.
DM.UseSaveDM           .true.      # Use the Density Matrix from the DM file
                                   #   if found
DM.Tolerance           1.d-4       # Tolerance in maximum difference
                                   # between input and output DM
MaxSCFIterations       100         # Maximum number of SCF Iterations
ElectronicTemperature  0.075 eV    # Electronic Temperature for the smearing
                                   #   of the Fermi-Dirac occupation function
SCF.MixAfterConvergence .false.    # Logical variable to indicate whether mixing
                                   #   is done in the last SCF cycle
                                   #   (after convergence has been achieved)
                                   #   or not.
                                   #   Not mixing after convergence improves
                                   #   the quality of the final Kohn-Sham
                                   #   energy and of the forces when mixing
                                   #   the DM.
#
# Molecular Dynamic or Relaxation variables
#
MD.TypeOfRun            cg          # Type of dynamics:
                                    #   - CG
                                    #   - Verlet
                                    #   - Nose
                                    #   - Parrinello-Rahman
                                    #   - Nose-Parrinello-Rahman
                                    #   - Anneal
                                    #   - FC
MD.VariableCell         .true.      # The lattice is relaxed together with
                                    # the atomic coordinates?
MD.NumCGsteps            0          # Number of CG steps for
                                    #   coordinate optimization
MD.MaxCGDispl           0.3 Bohr    # Maximum atomic displacement
                                    #   in one CG step
MD.MaxForceTol         0.01 eV/Ang  # Tolerance in the maximum
                                    #   atomic force
MD.MaxStressTol        0.0001 eV/Ang**3
                                    # Tolerance in the maximum
                                    #   stress in a MD.VariableCell CG optimi.
MD.UseSaveXV           .false.      # Instructs Siesta to read the
                                    #   atomic positions and velocities stored
                                    #   in file SystemLabel.XV by a
                                    #   previous run.
MD.UseSaveCG           .false.      # Instructs to read the conjugate-gradient
                                    #   hystory information stored in file
                                    #
#
# Plotting the band structure
#
BandLinesScale pi/a
%block BandLines
1   0.0 0.0 0.0 \Gamma              # Start at \Gamma
100 1.0 0.0 0.0 X                   # 100 points from \Gamma to X
100 1.0 1.0 0.0 M                   # 100 points from X to M
100 1.0 1.0 1.0 R                   # 100 points from M to R
173 0.0 0.0 0.0 \Gamma              # 173 points from R to \Gamma
141 0.0 1.0 1.0 M                   # 141 points from \Gamma to M
100 0.0 0.0 1.0 X                   # 100 points from M to X
141 1.0 1.0 1.0 R                   # 141 points from X to R
%endblock BandLines
#
# Plotting the Projected Density Of States
#
%block ProjectedDensityOfStates
  -70.00  20.00  0.150 3000  eV
%endblock ProjectedDensityOfStates
%PDOS.kgrid_Monkhorst_Pack
   120  0  0  0.5
    0 120  0  0.5
    0  0 120  0.5
%end PDOS.kgrid_Monkhorst_Pack
************************** End of input data file *****************************

reinit: -----------------------------------------------------------------------
reinit: System Name: Barium titanate (BaTiO3) cubic structure
reinit: -----------------------------------------------------------------------
reinit: System Label: BaTiO3
reinit: -----------------------------------------------------------------------

xc:
xc:  Cocktail exchange-correlation functional:
xc:
xc: Number     Functional     Authors     Weight(Ex)   Weight(Ec)
xc:    1   GGA                   LIBXC-0116-GGA_X_PBE   1.000        0.000
xc:    2   GGA                   LIBXC-0133-GGA_C_PBE   0.000        1.000
xc:

initatom: Reading input for the pseudopotentials and atomic orbitals ----------
Species number:   1 Atomic number:   56 Label: Ba
Species number:   2 Atomic number:   22 Label: Ti
Species number:   3 Atomic number:    8 Label: O

Ground state valence configuration:   6s02

Reading pseudopotential from: Ba.psml

PSML file version: 1.1
Using libxc ids:  116 133
GGA--PBEsol XC_GGA_X_PBE_SOL--XC_GGA_C_PBE_SOL ps
 Using ATOM defaults for log grid...
PSML uuid: 14acf8b0-1d66-11e8-4a41-3692dfd56b73
Dumping pseudopotential information in formatted form in Ba.psdump
Ground state valence configuration:   4s02  3d02

Reading pseudopotential from: Ti.psml

PSML file version: 1.1
Using libxc ids:  116 133
GGA--PBEsol XC_GGA_X_PBE_SOL--XC_GGA_C_PBE_SOL ps
 Using ATOM defaults for log grid...
PSML uuid: 4b1d8b90-1d65-11e8-71dd-645aef4ba7d4
Dumping pseudopotential information in formatted form in Ti.psdump
Ground state valence configuration:   2s02  2p04

Reading pseudopotential from: O.psml

PSML file version: 1.1
Using libxc ids:  116 133
GGA--PBEsol XC_GGA_X_PBE_SOL--XC_GGA_C_PBE_SOL ps
 Using ATOM defaults for log grid...
PSML uuid: fa630a90-1d64-11e8-7ddc-64dedbfaf3ff
Dumping pseudopotential information in formatted form in O.psdump
Semicore shell(s) with  8 electrons included in the valence for
Ba
Semicore shell(s) with  8 electrons included in the valence for
Ti
relmxkb: Read Max KB Ang. Momentum=    3 for species Ba
relmxkb: Read Max KB Ang. Momentum=    3 for species Ti
relmxkb: Read Max KB Ang. Momentum=    3 for species O
Pseudopotential only contains V_ls up to l=2 -- lmxkb reset.
Pseudopotential only contains V_ls up to l=2 -- lmxkb reset.
Pseudopotential only contains V_ls up to l=2 -- lmxkb reset.

<basis_specs>
===============================================================================
Ba                   Z=  56    Mass=  137.33        Charge= 0.17397    
Lmxo=2 Lmxkb= 2    BasisType=split      Semic=T
L=0  Nsemic=1  Cnfigmx=6
          n=1  nzeta=1  polorb=0  (5s)
            splnorm:   0.15000    
               vcte:    67.169    
               rinn:    4.8754    
               qcoe:    0.0000    
               qyuk:    0.0000    
               qwid:   0.10000E-01
                rcs:    5.7042    
            lambdas:    1.0000    
          n=2  nzeta=2  polorb=0  (6s)
            splnorm:   0.15000    
               vcte:    232.89    
               rinn:    5.7690    
               qcoe:    0.0000    
               qyuk:    0.0000    
               qwid:   0.10000E-01
                rcs:    6.9035      5.3003    
            lambdas:    1.0000      1.0000    
L=1  Nsemic=1  Cnfigmx=6
          n=1  nzeta=1  polorb=0  (5p)
            splnorm:   0.15000    
               vcte:    49.809    
               rinn:    3.5661    
               qcoe:    0.0000    
               qyuk:    0.0000    
               qwid:   0.10000E-01
                rcs:    6.7987    
            lambdas:    1.0000    
          n=2  nzeta=1  polorb=0  (6p)
            splnorm:   0.15000    
               vcte:    91.264    
               rinn:    5.2002    
               qcoe:    0.0000    
               qyuk:    0.0000    
               qwid:   0.10000E-01
                rcs:    7.4602    
            lambdas:    1.0000    
L=2  Nsemic=0  Cnfigmx=5
          n=1  nzeta=1  polorb=0  (5d)
            splnorm:   0.15000    
               vcte:    78.061    
               rinn:    6.2429    
               qcoe:    0.0000    
               qyuk:    0.0000    
               qwid:   0.10000E-01
                rcs:    6.7443    
            lambdas:    1.0000    
-------------------------------------------------------------------------------
L=0  Nkbl=2  erefs: 0.17977+309 0.17977+309
L=1  Nkbl=2  erefs: 0.17977+309 0.17977+309
L=2  Nkbl=1  erefs: 0.17977+309
===============================================================================
</basis_specs>

atom: Called for Ba                    (Z =  56)

read_vps: Pseudopotential generation method:
read_vps: ONCVPSP-3.Hamann's oncvpsp                        
Total valence charge:   10.00000

read_vps: Pseudopotential includes a core correction:
read_vps: Pseudo-core for xc-correction

xc_check: Exchange-correlation functional:
xc_check: GGA LIBXC-0116-GGA_X_PBE
xc_check: WARNING: Pseudopotential generated with GGA PBEsol functional

xc_check: Exchange-correlation functional:
xc_check: GGA LIBXC-0133-GGA_C_PBE
xc_check: WARNING: Pseudopotential generated with GGA PBEsol functional
Got Vlocal (oncv-fit) from psml data
Choosing vlocal chloc cutoff:  4.828999
qtot up to nchloc:   10.00031584
atom: Maximum radius forchloc:    4.82900
atom: Maximum radius for r*vlocal+2*Zval:    4.82900
Reading KB projs from Ba psml data
Using scalar-relativistic projectors in PSML file

PSML: Kleinman-Bylander projectors: 
   l= 0   rc=  1.987994   Ekb= 13.113365
   l= 0   rc=  1.987994   Ekb=  1.276458
   l= 1   rc=  1.844345   Ekb= 10.697721
   l= 1   rc=  1.844345   Ekb=  1.067455
   l= 2   rc=  1.938909   Ekb=  9.037816
   l= 2   rc=  1.938909   Ekb=  1.868101

PSML: Total number of  Kleinman-Bylander projectors:  18
atom: -------------------------------------------------------------------------

atom: SANKEY-TYPE ORBITALS:
atom: Selected multiple-zeta basis: split     

atom: basis set generated (by rescaling the valence charge)
atom: for a cation of charge   0.1740

SPLIT: Orbitals with angular momentum L= 0

SPLIT: Basis orbitals for state 5s

   izeta = 1
                 lambda =    1.000000
                     rc =    5.752535
                 energy =   -2.631512
                kinetic =    1.131803
    potential(screened) =   -3.763316
       potential(ionic) =  -11.502713

SPLIT: Basis orbitals for state 6s

   izeta = 1
                 lambda =    1.000000
                     rc =    7.026172
                 energy =   -0.218279
                kinetic =    0.849723
    potential(screened) =   -1.068002
       potential(ionic) =   -6.103661

   izeta = 2
                 rmatch =    5.336874
              splitnorm =    1.007496
                 energy =    1.477648
                kinetic =    1.745514
    potential(screened) =   -0.267866
       potential(ionic) =   -6.684404

SPLIT: Orbitals with angular momentum L= 1

SPLIT: Basis orbitals for state 5p

   izeta = 1
                 lambda =    1.000000
                     rc =    6.852694
                 energy =   -1.520069
                kinetic =    1.648408
    potential(screened) =   -3.168477
       potential(ionic) =  -10.513840

SPLIT: Basis orbitals for state 6p

   izeta = 1
                 lambda =    1.000000
                     rc =    7.573403
                 energy =    0.072232
                kinetic =    1.098378
    potential(screened) =   -1.026145
       potential(ionic) =   -5.801096

SPLIT: Orbitals with angular momentum L= 2

SPLIT: Basis orbitals for state 5d

   izeta = 1
                 lambda =    1.000000
                     rc =    6.852694
                 energy =   -0.228241
                kinetic =    1.446992
    potential(screened) =   -1.675233
       potential(ionic) =   -7.637017
atom: Total number of Sankey-type orbitals: 14

atm_pop: Valence configuration (for local Pseudopot. screening):
 5s( 2.00) 6s( 2.00)                                                  
 5p( 6.00) 6p( 0.00)                                                  
 5d( 0.00)                                                            
Vna: chval, zval:   10.00000  10.00000

Vna:  Cut-off radius for the neutral-atom potential:   7.026172
comcore: Pseudo-core radius Rcore=  3.532959

atom: _________________________________________________________________________

<basis_specs>
===============================================================================
Ti                   Z=  22    Mass=  47.880        Charge= 0.20322    
Lmxo=2 Lmxkb= 2    BasisType=split      Semic=T
L=0  Nsemic=1  Cnfigmx=4
          n=1  nzeta=1  polorb=0  (3s)
            splnorm:   0.15000    
               vcte:    93.565    
               rinn:    3.2722    
               qcoe:    0.0000    
               qyuk:    0.0000    
               qwid:   0.10000E-01
                rcs:    5.8336    
            lambdas:    1.0000    
          n=2  nzeta=2  polorb=0  (4s)
            splnorm:   0.15000    
               vcte:    86.503    
               rinn:    5.1707    
               qcoe:    0.0000    
               qyuk:    0.0000    
               qwid:   0.10000E-01
                rcs:    6.9017      4.3698    
            lambdas:    1.0000      1.0000    
L=1  Nsemic=1  Cnfigmx=4
          n=1  nzeta=1  polorb=0  (3p)
            splnorm:   0.15000    
               vcte:    102.65    
               rinn:    2.9840    
               qcoe:    0.0000    
               qyuk:    0.0000    
               qwid:   0.10000E-01
                rcs:    5.9406    
            lambdas:    1.0000    
          n=2  nzeta=1  polorb=0  (4p)
            splnorm:   0.15000    
               vcte:    4.6356    
               rinn:    1.4611    
               qcoe:    0.0000    
               qyuk:    0.0000    
               qwid:   0.10000E-01
                rcs:    5.9990    
            lambdas:    1.0000    
L=2  Nsemic=0  Cnfigmx=3
          n=1  nzeta=2  polorb=0  (3d)
            splnorm:   0.15000    
               vcte:    55.283    
               rinn:    5.6666    
               qcoe:    0.0000    
               qyuk:    0.0000    
               qwid:   0.10000E-01
                rcs:    6.5091      2.4325    
            lambdas:    1.0000      1.0000    
-------------------------------------------------------------------------------
L=0  Nkbl=2  erefs: 0.17977+309 0.17977+309
L=1  Nkbl=2  erefs: 0.17977+309 0.17977+309
L=2  Nkbl=1  erefs: 0.17977+309
===============================================================================
</basis_specs>

atom: Called for Ti                    (Z =  22)

read_vps: Pseudopotential generation method:
read_vps: ONCVPSP-3.Hamann's oncvpsp                        
Total valence charge:   12.00000

read_vps: Pseudopotential includes a core correction:
read_vps: Pseudo-core for xc-correction

xc_check: Exchange-correlation functional:
xc_check: GGA LIBXC-0116-GGA_X_PBE
xc_check: WARNING: Pseudopotential generated with GGA PBEsol functional

xc_check: Exchange-correlation functional:
xc_check: GGA LIBXC-0133-GGA_C_PBE
xc_check: WARNING: Pseudopotential generated with GGA PBEsol functional
Got Vlocal (oncv-fit) from psml data
Choosing vlocal chloc cutoff:  5.592561
qtot up to nchloc:   11.99995716
atom: Maximum radius forchloc:    5.59256
atom: Maximum radius for r*vlocal+2*Zval:    5.59256
Reading KB projs from Ti psml data
Using scalar-relativistic projectors in PSML file

PSML: Kleinman-Bylander projectors: 
   l= 0   rc=  1.379024   Ekb= 22.643900
   l= 0   rc=  1.379024   Ekb=  2.508948
   l= 1   rc=  1.328264   Ekb=  3.893789
   l= 1   rc=  1.328264   Ekb= -0.168537
   l= 2   rc=  1.684368   Ekb=-10.474209
   l= 2   rc=  1.684368   Ekb= -2.976755

PSML: Total number of  Kleinman-Bylander projectors:  18
atom: -------------------------------------------------------------------------

atom: SANKEY-TYPE ORBITALS:
atom: Selected multiple-zeta basis: split     

atom: basis set generated (by rescaling the valence charge)
atom: for a cation of charge   0.2032

SPLIT: Orbitals with angular momentum L= 0

SPLIT: Basis orbitals for state 3s

   izeta = 1
                 lambda =    1.000000
                     rc =    5.806269
                 energy =   -4.886528
                kinetic =    2.232488
    potential(screened) =   -7.119016
       potential(ionic) =  -22.930689

SPLIT: Basis orbitals for state 4s

   izeta = 1
                 lambda =    1.000000
                     rc =    6.916717
                 energy =   -0.443603
                kinetic =    0.935768
    potential(screened) =   -1.379372
       potential(ionic) =   -9.427618

   izeta = 2
                 rmatch =    4.410253
              splitnorm =    0.718120
                 energy =    0.011200
                kinetic =    2.249807
    potential(screened) =   -2.238606
       potential(ionic) =  -12.716941

SPLIT: Orbitals with angular momentum L= 1

SPLIT: Basis orbitals for state 3p

   izeta = 1
                 lambda =    1.000000
                     rc =    5.953258
                 energy =   -3.136534
                kinetic =    4.911570
    potential(screened) =   -8.048104
       potential(ionic) =  -23.399226

SPLIT: Basis orbitals for state 4p

   izeta = 1
                 lambda =    1.000000
                     rc =    6.103968
                 energy =   -0.056858
                kinetic =    1.588543
    potential(screened) =   -1.645400
       potential(ionic) =   -9.639792

SPLIT: Orbitals with angular momentum L= 2

SPLIT: Basis orbitals for state 3d

   izeta = 1
                 lambda =    1.000000
                     rc =    6.579379
                 energy =   -0.556628
                kinetic =    6.743999
    potential(screened) =   -7.300627
       potential(ionic) =  -20.721353

   izeta = 2
                 rmatch =    2.420347
              splitnorm =    0.249253
                 energy =   -0.094516
                kinetic =   10.924174
    potential(screened) =  -11.018690
       potential(ionic) =  -26.701767
atom: Total number of Sankey-type orbitals: 19

atm_pop: Valence configuration (for local Pseudopot. screening):
 3s( 2.00) 4s( 2.00)                                                  
 3p( 6.00) 4p( 0.00)                                                  
 3d( 2.00)                                                            
Vna: chval, zval:   12.00000  12.00000

Vna:  Cut-off radius for the neutral-atom potential:   6.916717
comcore: Pseudo-core radius Rcore=  1.770734

atom: _________________________________________________________________________

<basis_specs>
===============================================================================
O                    Z=   8    Mass=  16.000        Charge=-0.29809    
Lmxo=2 Lmxkb= 2    BasisType=split      Semic=F
L=0  Nsemic=0  Cnfigmx=2
          n=1  nzeta=2  polorb=0  (2s)
            splnorm:   0.15000    
               vcte:    32.110    
               rinn:    3.1133    
               qcoe:    0.0000    
               qyuk:    0.0000    
               qwid:   0.10000E-01
                rcs:    5.9859      2.8862    
            lambdas:    1.0000      1.0000    
L=1  Nsemic=0  Cnfigmx=2
          n=1  nzeta=2  polorb=0  (2p)
            splnorm:   0.15000    
               vcte:    32.574    
               rinn:    3.1615    
               qcoe:    0.0000    
               qyuk:    0.0000    
               qwid:   0.10000E-01
                rcs:    5.8855      3.8059    
            lambdas:    1.0000      1.0000    
L=2  Nsemic=0  Cnfigmx=3
          n=1  nzeta=1  polorb=0  (3d)
            splnorm:   0.15000    
               vcte:    36.271    
               rinn:   0.85992    
               qcoe:    0.0000    
               qyuk:    0.0000    
               qwid:   0.10000E-01
                rcs:    4.5217    
            lambdas:    1.0000    
-------------------------------------------------------------------------------
L=0  Nkbl=1  erefs: 0.17977+309
L=1  Nkbl=1  erefs: 0.17977+309
L=2  Nkbl=1  erefs: 0.17977+309
===============================================================================
</basis_specs>

atom: Called for O                     (Z =   8)

read_vps: Pseudopotential generation method:
read_vps: ONCVPSP-3.Hamann's oncvpsp                        
Total valence charge:    6.00000

read_vps: Pseudopotential includes a core correction:
read_vps: Pseudo-core for xc-correction

xc_check: Exchange-correlation functional:
xc_check: GGA LIBXC-0116-GGA_X_PBE
xc_check: WARNING: Pseudopotential generated with GGA PBEsol functional

xc_check: Exchange-correlation functional:
xc_check: GGA LIBXC-0133-GGA_C_PBE
xc_check: WARNING: Pseudopotential generated with GGA PBEsol functional
Got Vlocal (oncv-fit) from psml data
Choosing vlocal chloc cutoff:  6.022527
qtot up to nchloc:    6.00000891
atom: Maximum radius forchloc:    6.02253
atom: Maximum radius for r*vlocal+2*Zval:    6.02253
Reading KB projs from O psml data
Using scalar-relativistic projectors in PSML file

PSML: Kleinman-Bylander projectors: 
   l= 0   rc=  1.262145   Ekb= 14.461089
   l= 0   rc=  1.278025   Ekb=  1.986899
   l= 1   rc=  1.377587   Ekb=-10.498444
   l= 1   rc=  1.377587   Ekb= -2.586474
   l= 2   rc=  1.278025   Ekb= -2.671669

PSML: Total number of  Kleinman-Bylander projectors:  13
atom: -------------------------------------------------------------------------

atom: SANKEY-TYPE ORBITALS:
atom: Selected multiple-zeta basis: split     

atom: basis set generated (by rescaling the valence charge)
atom: for an anion of charge  -0.2981

SPLIT: Orbitals with angular momentum L= 0

SPLIT: Basis orbitals for state 2s

   izeta = 1
                 lambda =    1.000000
                     rc =    6.022527
                 energy =   -1.746703
                kinetic =    1.444432
    potential(screened) =   -3.191135
       potential(ionic) =  -10.928766

   izeta = 2
                 rmatch =    2.916698
              splitnorm =    0.099017
                 energy =   -1.635279
                kinetic =    2.064560
    potential(screened) =   -3.699839
       potential(ionic) =  -11.969842

SPLIT: Orbitals with angular momentum L= 1

SPLIT: Basis orbitals for state 2p

   izeta = 1
                 lambda =    1.000000
                     rc =    5.873823
                 energy =   -0.651170
                kinetic =    4.182504
    potential(screened) =   -4.833674
       potential(ionic) =  -12.216289

   izeta = 2
                 rmatch =    3.840021
              splitnorm =    0.043697
                 energy =   -0.625029
* WARNING: effective split_norm is quite small. Orbitals will be very similar.
                kinetic =    5.038888
    potential(screened) =   -5.663917
       potential(ionic) =  -13.529212

SPLIT: Orbitals with angular momentum L= 2

SPLIT: Basis orbitals for state 3d

   izeta = 1
                 lambda =    1.000000
                     rc =    4.574469
                 energy =    1.951386
                kinetic =    3.294972
    potential(screened) =   -1.343586
       potential(ionic) =   -7.092175
atom: Total number of Sankey-type orbitals: 13

atm_pop: Valence configuration (for local Pseudopot. screening):
 2s( 2.00)                                                            
 2p( 4.00)                                                            
 3d( 0.00)                                                            
Vna: chval, zval:    6.00000   6.00000

Vna:  Cut-off radius for the neutral-atom potential:   6.022527
comcore: Pseudo-core radius Rcore=  1.360471

atom: _________________________________________________________________________

prinput: Basis input 
* WARNING: This information might be incomplete!!!
----------------------------------------------------------

PAO.BasisType split     

%block ChemicalSpeciesLabel
    1   56 Ba                      # Species index, atomic number, species label
    2   22 Ti                      # Species index, atomic number, species label
    3    8 O                       # Species index, atomic number, species label
%endblock ChemicalSpeciesLabel

%block PAO.Basis                 # Define Basis set
# WARNING: This information might be incomplete!!!
Ba                    5   0.174            # Label, l-shells, ionic net charge
 n=5   0   1                         # n, l, Nzeta 
   5.753   
   1.000   
 n=6   0   2                         # n, l, Nzeta 
   7.026      5.337   
   1.000      1.000   
 n=5   1   1                         # n, l, Nzeta 
   6.853   
   1.000   
 n=6   1   1                         # n, l, Nzeta 
   7.573   
   1.000   
 n=5   2   1                         # n, l, Nzeta 
   6.853   
   1.000   
Ti                    5   0.203            # Label, l-shells, ionic net charge
 n=3   0   1                         # n, l, Nzeta 
   5.806   
   1.000   
 n=4   0   2                         # n, l, Nzeta 
   6.917      4.410   
   1.000      1.000   
 n=3   1   1                         # n, l, Nzeta 
   5.953   
   1.000   
 n=4   1   1                         # n, l, Nzeta 
   6.104   
   1.000   
 n=3   2   2                         # n, l, Nzeta 
   6.579      2.420   
   1.000      1.000   
O                     3  -0.298            # Label, l-shells, ionic net charge
 n=2   0   2                         # n, l, Nzeta 
   6.023      2.917   
   1.000      1.000   
 n=2   1   2                         # n, l, Nzeta 
   5.874      3.840   
   1.000      1.000   
 n=3   2   1                         # n, l, Nzeta 
   4.574   
   1.000   
%endblock PAO.Basis

prinput: ----------------------------------------------------------------------

 CH_OVERLAP: Z1=   9.9941852391139765       ZVAL1=   10.000000000000000     
 CH_OVERLAP: Z2=   9.9941852391139765       ZVAL2=   10.000000000000000     
 CH_OVERLAP: Z1=   11.995005091130285       ZVAL1=   12.000000000000000     
 CH_OVERLAP: Z2=   11.995005091130285       ZVAL2=   12.000000000000000     
 CH_OVERLAP: Z1=   11.995005091130285       ZVAL1=   12.000000000000000     
 CH_OVERLAP: Z2=   9.9941852391139765       ZVAL2=   10.000000000000000     
 CH_OVERLAP: Z1=   6.0106029084246302       ZVAL1=   6.0000000000000000     
 CH_OVERLAP: Z2=   6.0106029084246302       ZVAL2=   6.0000000000000000     
 CH_OVERLAP: Z1=   6.0106029084246302       ZVAL1=   6.0000000000000000     
 CH_OVERLAP: Z2=   11.995005091130285       ZVAL2=   12.000000000000000     
 CH_OVERLAP: Z1=   6.0106029084246302       ZVAL1=   6.0000000000000000     
 CH_OVERLAP: Z2=   9.9941852391139765       ZVAL2=   10.000000000000000     
coor:   Atomic-coordinates input format  =     Fractional

siesta: Atomic coordinates (Bohr) and species
siesta:      0.00000   0.00000   0.00000  1        1
siesta:      3.95851   3.95851   3.95851  2        2
siesta:      0.00000   3.95851   3.95851  3        3
siesta:      3.95851   0.00000   3.95851  3        4
siesta:      3.95851   3.95851   0.00000  3        5

siesta: System type = bulk      

initatomlists: Number of atoms, orbitals, and projectors:      5    72    75

siesta: ******************** Simulation parameters ****************************
siesta:
siesta: The following are some of the parameters of the simulation.
siesta: A complete list of the parameters used, including default values,
siesta: can be found in file out.fdf
siesta:
redata: Spin configuration                          = none
redata: Number of spin components                   = 1
redata: Time-Reversal Symmetry                      = T
redata: Spin-spiral                                 = F
redata: Long output                                 =   F
redata: Number of Atomic Species                    =        3
redata: Charge density info will appear in .RHO file
redata: Write Mulliken Pop.                         = NO
redata: Matel table size (NRTAB)                    =     1024
redata: Mesh Cutoff                                 =   600.0000 Ry
redata: Net charge of the system                    =     0.0000 |e|
redata: Min. number of SCF Iter                     =        0
redata: Max. number of SCF Iter                     =      100
redata: SCF convergence failure will abort job
redata: SCF mix quantity                            = Hamiltonian
redata: Mix DM or H after convergence               =   F
redata: Recompute H after scf cycle                 =   F
redata: Mix DM in first SCF step                    =   T
redata: Write Pulay info on disk                    =   F
redata: New DM Mixing Weight                        =     0.2500
redata: New DM Occupancy tolerance                  = 0.000000000001
redata: No kicks to SCF
redata: DM Mixing Weight for Kicks                  =     0.5000
redata: Require Harris convergence for SCF          =   F
redata: Harris energy tolerance for SCF             =     0.000100 eV
redata: Require DM convergence for SCF              =   T
redata: DM tolerance for SCF                        =     0.000100
redata: Require EDM convergence for SCF             =   F
redata: EDM tolerance for SCF                       =     0.001000 eV
redata: Require H convergence for SCF               =   T
redata: Hamiltonian tolerance for SCF               =     0.001000 eV
redata: Require (free) Energy convergence for SCF   =   F
redata: (free) Energy tolerance for SCF             =     0.000100 eV
redata: Using Saved Data (generic)                  =   F
redata: Use continuation files for DM               =   T
redata: Neglect nonoverlap interactions             =   F
redata: Method of Calculation                       = Diagonalization
redata: Electronic Temperature                      =   870.3328 K
redata: Fix the spin of the system                  =   F
redata: Max. number of TDED Iter                    =        1
redata: Number of TDED substeps                     =        3
redata: Dynamics option                             = Single-point calculation
mix.SCF: Pulay mixing                            = Pulay
mix.SCF:    Variant                              = stable
mix.SCF:    History steps                        = 3
mix.SCF:    Linear mixing weight                 =     0.250000
mix.SCF:    Mixing weight                        =     0.250000
mix.SCF:    SVD condition                        = 0.1000E-07
redata: ***********************************************************************

%block SCF.Mixers
  Pulay
%endblock SCF.Mixers

%block SCF.Mixer.Pulay
  # Mixing method
  method pulay
  variant stable

  # Mixing options
  weight 0.2500
  weight.linear 0.2500
  history 3
%endblock SCF.Mixer.Pulay

DM_history_depth set to one: no extrapolation allowed by default for geometry relaxation
Size of DM history Fstack: 1
Total number of electrons:    40.000000
Total ionic charge:    40.000000
 Kpoints in:          108 . Kpoints trimmed:          108

siesta: k-grid: Number of k-points =       108
siesta: k-points from Monkhorst-Pack grid
siesta: k-cutoff (effective) =    12.569 Ang
siesta: k-point supercell and displacements
siesta: k-grid:    6   0   0      0.500
siesta: k-grid:    0   6   0      0.500
siesta: k-grid:    0   0   6      0.500
 Kpoints in:          108 . Kpoints trimmed:          108

siesta: PDOS k-grid: Number of k-points =       108
siesta: PDOS k-points from Monkhorst-Pack grid
siesta: PDOS k-cutoff (effective) =     0.000 Ang
siesta: PDOS k-point supercell and displacements
siesta: k-grid:    6   0   0      0.500
siesta: k-grid:    0   6   0      0.500
siesta: k-grid:    0   0   6      0.500

diag: Algorithm                                     = D&C
diag: Used triangular part                          = Lower
diag: Absolute tolerance                            =  0.100E-15
diag: Orthogonalization factor                      =  0.100E-05
diag: Memory factor                                 =  1.0000
Using LatticeConstant from fdf file for BandLinesScale:    7.917011 Bohr
Beware any cell changes by the end of the run
Using LatticeConstant from fdf file for BandLinesScale:    7.917011 Bohr
Beware any cell changes by the end of the run

superc: Internal auxiliary supercell:     5 x     5 x     5  =     125
superc: Number of atoms, orbitals, and projectors:    625   9000   9375


ts: **************************************************************
ts: Save H and S matrices                           =    F
ts: Save DM and EDM matrices                        =    F
ts: Fix Hartree potential                           =    F
ts: Only save the overlap matrix S                  =    F
ts: **************************************************************

************************ Begin: TS CHECKS AND WARNINGS ************************
************************ End: TS CHECKS AND WARNINGS **************************


                     ====================================
                        Single-point calculation
                     ====================================

superc: Internal auxiliary supercell:     5 x     5 x     5  =     125
superc: Number of atoms, orbitals, and projectors:    625   9000   9375

outcell: Unit cell vectors (Ang):
        4.189500    0.000000    0.000000
        0.000000    4.189500    0.000000
        0.000000    0.000000    4.189500

outcell: Cell vector modules (Ang)   :    4.189500    4.189500    4.189500
outcell: Cell angles (23,13,12) (deg):     90.0000     90.0000     90.0000
outcell: Cell volume (Ang**3)        :     73.5337
<dSpData1D:S at geom step 0
  <sparsity:sparsity for geom step 0
    nrows_g=72 nrows=72 sparsity=15.9101 nnzs=82478, refcount: 7>
  <dData1D:(new from dSpData1D) n=82478, refcount: 1>
refcount: 1>
new_DM -- step:     1
Initializing Density Matrix...

Attempting to read DM from file... Failed...
DM filled with atomic data:
<dSpData2D:DM initialized from atoms
  <sparsity:sparsity for geom step 0
    nrows_g=72 nrows=72 sparsity=15.9101 nnzs=82478, refcount: 8>
  <dData2D:DM n=82478 m=1, refcount: 1>
refcount: 1>
No. of atoms with KB's overlaping orbs in proc 0. Max # of overlaps:      43     334
New grid distribution:   1
           1       1:   32    1:   32    1:   32

InitMesh: MESH =    64 x    64 x    64 =      262144
InitMesh: (bp) =    32 x    32 x    32 =       32768
InitMesh: Mesh cutoff (required, used) =   600.000   644.967 Ry
ExtMesh (bp) on 0 =   156 x   156 x   156 =     3796416
PhiOnMesh: Number of (b)points on node 0 =                32768
PhiOnMesh: nlist on node 0 =              3619172

stepf: Fermi-Dirac step function

siesta: Program's energy decomposition (eV):
siesta: Ebs     =      -699.042500
siesta: Eions   =      5589.266550
siesta: Ena     =       996.425671
siesta: Ekin    =      1823.082086
siesta: Enl     =      -160.616628
siesta: Eso     =         0.000000
siesta: Eldau   =         0.000000
siesta: DEna    =       -54.758215
siesta: DUscf   =        69.624907
siesta: DUext   =         0.000000
siesta: Enegf   =         0.000000
siesta: Exc     =      -778.122135
siesta: eta*DQ  =         0.000000
siesta: Emadel  =         0.000000
siesta: Emeta   =         0.000000
siesta: Emolmec =         0.000000
siesta: Ekinion =         0.000000
siesta: Eharris =     -3605.731237
siesta: Etot    =     -3693.630865
siesta: FreeEng =     -3693.630865

        iscf     Eharris(eV)        E_KS(eV)     FreeEng(eV)     dDmax    Ef(eV) dHmax(eV)
   scf:    1    -3605.731237    -3693.630865    -3693.630865  1.994093 -5.223863 21.631477
timer: Routine,Calls,Time,% = IterSCF        1      20.122  16.09
   scf:    2    -3751.753062    -3729.485686    -3729.485686  0.693402 -6.116807  6.770874
   scf:    3    -3710.650653    -3727.623114    -3727.636051  0.301119 -6.042583 11.237551
   scf:    4    -3733.959553    -3731.164436    -3731.166065  0.081072 -5.996323  6.931863
   scf:    5    -3734.122757    -3733.131827    -3733.131874  0.088063 -5.894534  1.970923
   scf:    6    -3733.323877    -3733.242948    -3733.242969  0.015213 -5.859663  1.058501
   scf:    7    -3733.192660    -3733.264987    -3733.264992  0.029126 -5.720235  0.754186
   scf:    8    -3733.289958    -3733.284162    -3733.284170  0.010166 -5.764875  0.078935
   scf:    9    -3733.284555    -3733.284429    -3733.284437  0.002875 -5.766632  0.017646
   scf:   10    -3733.284478    -3733.284457    -3733.284466  0.002267 -5.765285  0.003431
   scf:   11    -3733.284458    -3733.284458    -3733.284467  0.000272 -5.765256  0.001867
   scf:   12    -3733.284458    -3733.284458    -3733.284467  0.000111 -5.765078  0.001381
   scf:   13    -3733.284458    -3733.284458    -3733.284467  0.000270 -5.764367  0.000358
   scf:   14    -3733.284458    -3733.284458    -3733.284467  0.000036 -5.764406  0.000147

SCF Convergence by DM+H criterion
max |DM_out - DM_in|         :     0.0000364559
max |H_out - H_in|      (eV) :     0.0001466334
SCF cycle converged after 14 iterations

Using DM_out to compute the final energy and forces
No. of atoms with KB's overlaping orbs in proc 0. Max # of overlaps:      43     334

siesta: E_KS(eV) =            -3733.2845

siesta: E_KS - E_eggbox =     -3733.2845

siesta: Atomic forces (eV/Ang):
----------------------------------------
   Tot    0.000000    0.000000   -0.000000
----------------------------------------
   Max    0.000000
   Res    0.000000    sqrt( Sum f_i^2 / 3N )
----------------------------------------
   Max    0.000000    constrained

Stress-tensor-Voigt (kbar):      194.90      194.90      194.90        0.00        0.00        0.00
(Free)E + p*V (eV/cell)    -3742.2297
Target enthalpy (eV/cell)    -3733.2845

siesta: Stress tensor (static) (eV/Ang**3):
         0.121648    0.000000    0.000000
         0.000000    0.121648    0.000000
         0.000000    0.000000    0.121648

siesta: Pressure (static):       -194.90312075  kBar

siesta: Stress tensor (total) (eV/Ang**3):
         0.121648    0.000000    0.000000
         0.000000    0.121648    0.000000
         0.000000    0.000000    0.121648

siesta: Pressure (total):       -194.90312075  kBar

outcell: Unit cell vectors (Ang):
        4.189500    0.000000    0.000000
        0.000000    4.189500    0.000000
        0.000000    0.000000    4.189500

outcell: Cell vector modules (Ang)   :    4.189500    4.189500    4.189500
outcell: Cell angles (23,13,12) (deg):     90.0000     90.0000     90.0000
outcell: Cell volume (Ang**3)        :     73.5337
Computing bands...

siesta: PDOS info
siesta: E1 -- E2, sigma [eV], nhist:  -70.000 --   20.000    0.150 3000

siesta: Program's energy decomposition (eV):
siesta: Ebs     =      -817.628758
siesta: Eions   =      5589.266550
siesta: Ena     =       996.425671
siesta: Ekin    =      1694.084585
siesta: Enl     =       -88.460528
siesta: Eso     =         0.000000
siesta: Eldau   =         0.000000
siesta: DEna    =        -4.771052
siesta: DUscf   =         7.242388
siesta: DUext   =         0.000000
siesta: Enegf   =         0.000000
siesta: Exc     =      -748.538972
siesta: eta*DQ  =         0.000000
siesta: Emadel  =         0.000000
siesta: Emeta   =         0.000000
siesta: Emolmec =         0.000000
siesta: Ekinion =         0.000000
siesta: Eharris =     -3733.284458
siesta: Etot    =     -3733.284458
siesta: FreeEng =     -3733.284467

siesta: Final energy (eV):
siesta:  Band Struct. =    -817.628758
siesta:       Kinetic =    1694.084585
siesta:       Hartree =     851.727654
siesta:       Eldau   =       0.000000
siesta:       Eso     =       0.000000
siesta:    Ext. field =       0.000000
siesta:       Enegf   =       0.000000
siesta:   Exch.-corr. =    -748.538972
siesta:  Ion-electron =   -3435.597744
siesta:       Ion-ion =   -2094.959981
siesta:       Ekinion =       0.000000
siesta:         Total =   -3733.284458
siesta:         Fermi =      -5.764406

siesta: Stress tensor (static) (eV/Ang**3):
siesta:     0.121648    0.000000    0.000000
siesta:     0.000000    0.121648    0.000000
siesta:     0.000000    0.000000    0.121648

siesta: Cell volume =         73.533728 Ang**3

siesta: Pressure (static):
siesta:                Solid            Molecule  Units
siesta:          -0.00132490         -0.00132490  Ry/Bohr**3
siesta:          -0.12164764         -0.12164764  eV/Ang**3
siesta:        -194.90312075       -194.90312075  kBar
(Free)E+ p_basis*V_orbitals  =       -3729.478639
(Free)Eharris+ p_basis*V_orbitals  =       -3729.478639

timer: Elapsed wall time (sec) =     404.282
timer: CPU execution times (sec):

Routine            Calls   Time/call    Tot.time        %
siesta                 1     322.467     322.467   100.00
Setup                  1       0.846       0.846     0.26
bands                  3       1.796       5.388     1.67
KSV_init               1       0.000       0.000     0.00
IterGeom               1     311.812     311.812    96.70
state_init             1      14.176      14.176     4.40
hsparse                1       0.058       0.058     0.02
overlap                1      14.077      14.077     4.37
Setup_H0               1      89.936      89.936    27.89
naefs                  2       0.002       0.003     0.00
MolMec                 2       0.000       0.000     0.00
kinefsm                2       7.013      14.026     4.35
nlefsm                 2      32.858      65.717    20.38
DHSCF_Init             1      10.652      10.652     3.30
DHSCF1                 1       0.460       0.460     0.14
INITMESH               1       0.000       0.000     0.00
DHSCF2                 1      10.192      10.192     3.16
REMESH                 1       1.741       1.741     0.54
REORD                 47       0.001       0.041     0.01
PHION                  1       7.598       7.598     2.36
COMM_BSC              35       0.001       0.032     0.01
POISON                17       0.034       0.570     0.18
fft                   34       0.012       0.418     0.13
IterSCF               14      13.165     184.313    57.16
setup_H               15       8.117     121.749    37.76
DHSCF                 16       9.039     144.625    44.85
DHSCF3                16       8.137     130.185    40.37
rhoofd                16       3.908      62.525    19.39
CellXC                16       0.945      15.113     4.69
gridxc@cellXC         16       0.945      15.113     4.69
vmat                  16       3.241      51.857    16.08
compute_dm            14       4.464      62.490    19.38
diagon                14       4.460      62.433    19.36
c-eigval            2368       0.010      23.738     7.36
c-buildHS           2368       0.008      19.497     6.05
cdiag               3988       0.003      12.551     3.89
cdiag1              3988       0.000       0.973     0.30
cdiag2              3988       0.001       2.676     0.83
cdiag3              3988       0.002       8.324     2.58
c-eigvec            1512       0.015      23.148     7.18
cdiag4              1620       0.000       0.448     0.14
c-buildD            1512       0.014      20.811     6.45
MIXER                 13       0.003       0.034     0.01
PostSCF                1      23.386      23.386     7.25
DHSCF4                 1      14.440      14.440     4.48
dfscf                  1      13.511      13.511     4.19
overfsm                1       0.035       0.035     0.01
state_analysis         1       0.000       0.000     0.00
siesta_move            1       0.000       0.000     0.00
Analysis               1       9.804       9.804     3.04
pdos                   1       4.407       4.407     1.37
optical                1       0.000       0.000     0.00
  

>> End of run:   8-APR-2020  12:43:58
Job completed
