<?xml version="1.0" encoding="UTF-8" ?>
<psml version="1.1" energy_unit="hartree" length_unit="bohr"
 uuid="4b1d8b90-1d65-11e8-71dd-645aef4ba7d4"
 xmlns="http://esl.cecam.org/PSML/ns/1.1">
<provenance creator="ONCVPSP-3.3.0+psml-3.3.0-73 (scalar-relativistic)"
 date="2018-03-01">
<annotation action="semilocal-pseudopotential-generation"
 action-cont="projectors-generation" />
<input-file name="oncvpsp-input">
<![CDATA[# atsym z nc nv iexc psfile
Ti 22 3 4 -116133 upf
# n l f
1 0 2.0
2 0 2.0
2 1 6.0
3 0 2.0
3 1 6.0
3 2 2.0
4 0 2.0
# lmax
2
# l rc ep ncon nbas qcut
0 1.35 0.0 4 8 8.6
1 1.3 0.0 4 8 9.0
2 1.65 0.0 4 8 9.0
# lloc lpopt rc5 dvloc0
4 5 1.3 0.0
# l nproj debl
0 2 1.0
1 2 2.0
2 2 1.5
# icmod fcfact
3 2.5 1.40
# epsh1 epsh2 depsh
-12.0 12.0 0.02
# rlmax drl
6.0 0.01
 0
]]>
</input-file>
</provenance>
<pseudo-atom-spec atomic-label="Ti" atomic-number="22" z-pseudo="12"
 flavor="Hamann&apos;s oncvpsp" relativity="scalar" spin-dft="no"
 core-corrections="yes">
<annotation pseudo-energy="-58.0213448933" />
<exchange-correlation>
<annotation oncvpsp-xc-code="-116133" oncvpsp-xc-type="libxc-interface" />
<libxc-info number-of-functionals="2">
<functional name="Perdew, Burke &amp; Ernzerhof SOL (GGA)" type="exchange"
 id="116" />
<functional name="Perdew, Burke &amp; Ernzerhof SOL (GGA)" type="correlation"
 id="133" />
</libxc-info>
</exchange-correlation>
<valence-configuration total-valence-charge="12">
<shell n="3" l="s" occupation="2" />
<shell n="3" l="p" occupation="6" />
<shell n="3" l="d" occupation="2" />
<shell n="4" l="s" occupation="2" />
</valence-configuration>
</pseudo-atom-spec>
<grid npts="457">
<annotation type="sampled from oncvpsp log grid"
 recipe="r(i:1..N) = r1*exp(a*(i-1)) + r=0; resampled"
 recipe-cont="r1: scale; a: step" scale="0.227272727273E-04"
 step="0.119285708653E-01" delta="0.500000000000E-02" rmax="44.2272058873" />
<grid-data>
  0.000000000000E+00  5.050326870634E-03  1.008763158867E-02  1.513305596120E-02
  2.014925244947E-02  2.527485517356E-02  3.058981678310E-02  3.572099424244E-02
  4.072950911740E-02  4.588960304035E-02  5.109035418629E-02  5.620604328253E-02
  6.183396752268E-02  6.721879163176E-02  7.307255428460E-02  7.849416313563E-02
  8.431802756430E-02  8.949999295644E-02  9.500042838519E-02  1.008389061859E-01
  1.070362015583E-01  1.122671605650E-01  1.177537614174E-01  1.235084975710E-01
  1.295444730481E-01  1.358754322768E-01  1.425157913881E-01  1.477081729672E-01
  1.530897323645E-01  1.586673620330E-01  1.644482055438E-01  1.704396667347E-01
  1.766494191929E-01  1.830854160832E-01  1.897559003335E-01  1.966694151926E-01
  2.038348151717E-01  2.112612773846E-01  2.163619696658E-01  2.215858130614E-01
  2.269357809319E-01  2.324149184268E-01  2.380263442172E-01  2.437732522720E-01
  2.496589136749E-01  2.556866784866E-01  2.618599776520E-01  2.681823249525E-01
  2.746573190061E-01  2.812886453162E-01  2.880800783687E-01  2.950354837808E-01
  3.021588205013E-01  3.094541430634E-01  3.169256038936E-01  3.245774556740E-01
  3.324140537638E-01  3.404398586778E-01  3.486594386257E-01  3.570774721119E-01
  3.656987505986E-01  3.745281812330E-01  3.835707896407E-01  3.928317227858E-01
  4.023162519008E-01  4.120297754867E-01  4.219778223860E-01  4.270415562546E-01
  4.321660549297E-01  4.373520475889E-01  4.426002721599E-01  4.479114754258E-01
  4.532864131309E-01  4.587258500885E-01  4.642305602896E-01  4.698013270131E-01
  4.754389429372E-01  4.811442102525E-01  4.869179407755E-01  4.927609560648E-01
  4.986740875376E-01  5.046581765880E-01  5.107140747071E-01  5.168426436036E-01
  5.230447553268E-01  5.293212923907E-01  5.356731478994E-01  5.421012256742E-01
  5.486064403823E-01  5.551897176669E-01  5.618519942789E-01  5.685942182102E-01
  5.754173488288E-01  5.823223570147E-01  5.893102252989E-01  5.963819480025E-01
  6.035385313785E-01  6.107809937550E-01  6.181103656801E-01  6.255276900683E-01
  6.330340223491E-01  6.406304306173E-01  6.483179957847E-01  6.560978117341E-01
  6.639709854749E-01  6.719386373006E-01  6.800019009482E-01  6.881619237596E-01
  6.964198668447E-01  7.047769052468E-01  7.132342281098E-01  7.217930388471E-01
  7.304545553133E-01  7.392200099770E-01  7.480906500968E-01  7.570677378979E-01
  7.661525507527E-01  7.753463813617E-01  7.846505379381E-01  7.940663443933E-01
  8.035951405261E-01  8.132382822124E-01  8.229971415989E-01  8.328731072981E-01
  8.428675845857E-01  8.529819956007E-01  8.632177795479E-01  8.735763929025E-01
  8.840593096173E-01  8.946680213327E-01  9.054040375887E-01  9.162688860398E-01
  9.272641126723E-01  9.383912820243E-01  9.496519774086E-01  9.610478011375E-01
  9.725803747512E-01  9.842513392482E-01  9.960623553192E-01  1.008015103583E+00
  1.020111284826E+00  1.032352620244E+00  1.044740851687E+00  1.057277741907E+00
  1.069965074810E+00  1.082804655708E+00  1.095798311576E+00  1.108947891315E+00
  1.122255266011E+00  1.135722329203E+00  1.149350997153E+00  1.163143209119E+00
  1.177100927629E+00  1.191226138760E+00  1.205520852425E+00  1.219987102654E+00
  1.234626947886E+00  1.249442471261E+00  1.264435780916E+00  1.279609010287E+00
  1.294964318411E+00  1.310503890231E+00  1.326229936914E+00  1.342144696157E+00
  1.358250432511E+00  1.374549437701E+00  1.391044030954E+00  1.407736559325E+00
  1.424629398037E+00  1.441724950813E+00  1.459025650223E+00  1.476533958026E+00
  1.494252365522E+00  1.512183393908E+00  1.530329594635E+00  1.548693549771E+00
  1.567277872368E+00  1.586085206837E+00  1.605118229319E+00  1.624379648071E+00
  1.643872203847E+00  1.663598670294E+00  1.683561854337E+00  1.703764596589E+00
  1.724209771748E+00  1.744900289009E+00  1.765839092477E+00  1.787029161587E+00
  1.808473511526E+00  1.830175193664E+00  1.852137295988E+00  1.874362943540E+00
  1.896855298863E+00  1.919617562449E+00  1.942652973198E+00  1.965964808877E+00
  1.989556386583E+00  2.013431063222E+00  2.037592235981E+00  2.062043342813E+00
  2.086787862926E+00  2.111829317282E+00  2.137171269089E+00  2.162817324318E+00
  2.188771132210E+00  2.215036385796E+00  2.241616822426E+00  2.268516224295E+00
  2.295738418987E+00  2.323287280014E+00  2.351166727375E+00  2.379380728103E+00
  2.407933296840E+00  2.436828496402E+00  2.466070438359E+00  2.495663283620E+00
  2.525611243023E+00  2.555918577939E+00  2.586589600875E+00  2.617628676085E+00
  2.649040220198E+00  2.680828702840E+00  2.712998647275E+00  2.745554631042E+00
  2.778501286614E+00  2.811843302054E+00  2.845585421678E+00  2.879732446738E+00
  2.914289236099E+00  2.949260706933E+00  2.984651835416E+00  3.020467657441E+00
  3.056713269330E+00  3.093393828562E+00  3.130514554505E+00  3.168080729159E+00
  3.206097697909E+00  3.244570870284E+00  3.283505720727E+00  3.322907789376E+00
  3.362782682848E+00  3.403136075042E+00  3.443973707943E+00  3.485301392438E+00
  3.527125009147E+00  3.569450509257E+00  3.612283915368E+00  3.655631322353E+00
  3.699498898221E+00  3.743892885000E+00  3.788819599620E+00  3.834285434815E+00
  3.880296860033E+00  3.926860422353E+00  3.973982747421E+00  4.021670540391E+00
  4.069930586875E+00  4.118769753918E+00  4.168194990965E+00  4.218213330856E+00
  4.268831890827E+00  4.320057873516E+00  4.371898567999E+00  4.424361350815E+00
  4.477453687024E+00  4.531183131269E+00  4.585557328844E+00  4.640584016790E+00
  4.696271024992E+00  4.752626277291E+00  4.809657792619E+00  4.867373686130E+00
  4.925782170364E+00  4.984891556408E+00  5.044710255085E+00  5.105246778146E+00
  5.166509739484E+00  5.228507856358E+00  5.291249950634E+00  5.354744950042E+00
  5.419001889442E+00  5.484029912116E+00  5.549838271061E+00  5.616436330314E+00
  5.683833566277E+00  5.752039569073E+00  5.821064043902E+00  5.890916812428E+00
  5.961607814178E+00  6.033147107948E+00  6.105544873243E+00  6.178811411722E+00
  6.252957148663E+00  6.327992634447E+00  6.403928546060E+00  6.480775688613E+00
  6.558544996876E+00  6.637247536839E+00  6.716894507281E+00  6.797497241368E+00
  6.879067208264E+00  6.961616014764E+00  7.045155406941E+00  7.129697271824E+00
  7.215253639086E+00  7.301836682755E+00  7.389458722948E+00  7.478132227623E+00
  7.567869814355E+00  7.658684252127E+00  7.750588463153E+00  7.843595524710E+00
  7.937718671007E+00  8.032971295059E+00  8.129366950600E+00  8.226919354007E+00
  8.325642386255E+00  8.425550094890E+00  8.526656696029E+00  8.628976576381E+00
  8.732524295298E+00  8.837314586841E+00  8.943362361883E+00  9.050682710226E+00
  9.159290902749E+00  9.269202393582E+00  9.380432822305E+00  9.492998016172E+00
  9.606913992366E+00  9.722196960275E+00  9.838863323798E+00  9.956929683684E+00
  1.007641283989E+01  1.019732979397E+01  1.031969775149E+01  1.044353412451E+01
  1.056885653401E+01  1.069568281241E+01  1.082403100616E+01  1.095391937824E+01
  1.108536641078E+01  1.121839080771E+01  1.135301149740E+01  1.148924763537E+01
  1.162711860699E+01  1.176664403027E+01  1.190784375864E+01  1.205073788374E+01
  1.219534673835E+01  1.234169089921E+01  1.248979119000E+01  1.263966868428E+01
  1.279134470849E+01  1.294484084499E+01  1.310017893513E+01  1.325738108235E+01
  1.341646965534E+01  1.357746729120E+01  1.374039689870E+01  1.390528166148E+01
  1.407214504142E+01  1.424101078192E+01  1.441190291130E+01  1.458484574624E+01
  1.475986389519E+01  1.493698226193E+01  1.511622604908E+01  1.529762076167E+01
  1.548119221081E+01  1.566696651734E+01  1.585497011554E+01  1.604522975693E+01
  1.623777251401E+01  1.643262578418E+01  1.662981729359E+01  1.682937510111E+01
  1.703132760233E+01  1.723570353356E+01  1.744253197596E+01  1.765184235967E+01
  1.786366446799E+01  1.807802844160E+01  1.829496478290E+01  1.851450436030E+01
  1.873667841262E+01  1.896151855357E+01  1.918905677621E+01  1.941932545753E+01
  1.965235736302E+01  1.988818565138E+01  2.012684387919E+01  2.036836600574E+01
  2.061278639781E+01  2.086013983458E+01  2.111046151260E+01  2.136378705075E+01
  2.162015249536E+01  2.187959432530E+01  2.214214945721E+01  2.240785525069E+01
  2.267674951370E+01  2.294887050787E+01  2.322425695396E+01  2.350294803741E+01
  2.378498341386E+01  2.407040321482E+01  2.435924805340E+01  2.465155903004E+01
  2.494737773840E+01  2.524674627126E+01  2.554970722652E+01  2.585630371324E+01
  2.616657935780E+01  2.648057831009E+01  2.679834524981E+01  2.711992539281E+01
  2.744536449752E+01  2.777470887149E+01  2.810800537795E+01  2.844530144249E+01
  2.878664505980E+01  2.913208480051E+01  2.948166981812E+01  2.983544985594E+01
  3.019347525421E+01  3.055579695726E+01  3.092246652075E+01  3.129353611899E+01
  3.166905855242E+01  3.204908725505E+01  3.243367630211E+01  3.282288041774E+01
  3.321675498275E+01  3.361535604254E+01  3.401874031505E+01  3.442696519883E+01
  3.484008878122E+01  3.525816984660E+01  3.568126788475E+01  3.610944309937E+01
  3.654275641656E+01  3.698126949356E+01  3.742504472749E+01  3.787414526422E+01
  3.832863500739E+01  3.878857862747E+01  3.925404157100E+01  3.972509006986E+01
  4.020179115069E+01  4.068421264450E+01  4.117242319624E+01  4.166649227459E+01
  4.216649018189E+01  4.267248806407E+01  4.318455792084E+01  4.370277261589E+01
  4.422720588728E+01
</grid-data>
</grid>
<valence-charge total-charge="12" is-unscreening-charge="yes"
 rescaled-to-z-pseudo="no">
<radfunc>
<data npts="457">
  1.955466948017E+00  1.957675926958E+00  1.964278921592E+00  1.975293721056E+00
  1.990605445032E+00  2.010734098007E+00  2.036380164517E+00  2.065736591320E+00
  2.098731275758E+00  2.137190214854E+00  2.180516580064E+00  2.227581037569E+00
  2.284421495868E+00  2.343738861356E+00  2.413650509789E+00  2.483402381386E+00
  2.563636886433E+00  2.639604160476E+00  2.724904349245E+00  2.820641433044E+00
  2.928038188878E+00  3.023253873024E+00  3.127548307998E+00  3.241735101320E+00
  3.366689366597E+00  3.503349730541E+00  3.652719687203E+00  3.773728346266E+00
  3.902960883288E+00  4.040912148126E+00  4.188096188519E+00  4.345045048203E+00
  4.512307092966E+00  4.690444777226E+00  4.880031751180E+00  5.081649194740E+00
  5.295881249435E+00  5.523309403302E+00  5.682542440688E+00  5.848060497914E+00
  6.020024358850E+00  6.198588689290E+00  6.383900470385E+00  6.576097253896E+00
  6.775305225133E+00  6.981637059095E+00  7.195189555067E+00  7.416041034975E+00
  7.644248491012E+00  7.879844468641E+00  8.122833672058E+00  8.373189280664E+00
  8.630848967139E+00  8.895710610468E+00  9.167627700832E+00  9.446404437784E+00
  9.731790528792E+00  1.002347570207E+01  1.032108395593E+01  1.062416757687E+01
  1.093220096999E+01  1.124457435926E+01  1.156058743019E+01  1.187944300559E+01
  1.220024086440E+01  1.252197183566E+01  1.284351232335E+01  1.300382751134E+01
  1.316361944304E+01  1.332271345492E+01  1.348092697809E+01  1.363806947353E+01
  1.379394238998E+01  1.394833914681E+01  1.410104514430E+01  1.425183780365E+01
  1.440048663941E+01  1.454675336686E+01  1.469039204699E+01  1.483114927171E+01
  1.496876439213E+01  1.510296979241E+01  1.523349121194E+01  1.536004811837E+01
  1.548235413417E+01  1.560011751880E+01  1.571304170903E+01  1.582082591932E+01
  1.592316580405E+01  1.601975418316E+01  1.611028183257E+01  1.619443834001E+01
  1.627191302692E+01  1.634239593631E+01  1.640557888615E+01  1.646115658718E+01
  1.650882782351E+01  1.654829669364E+01  1.657927390906E+01  1.660147814649E+01
  1.661463744942E+01  1.661849067355E+01  1.661278897016E+01  1.659729730027E+01
  1.657179597195E+01  1.653608219221E+01  1.648997162380E+01  1.643329993700E+01
  1.636592434518E+01  1.628772511266E+01  1.619860702245E+01  1.609850079116E+01
  1.598736441771E+01  1.586518445244E+01  1.573197717260E+01  1.558778965064E+01
  1.543270070129E+01  1.526682169422E+01  1.509029721891E+01  1.490330558943E+01
  1.470605917730E+01  1.449880456164E+01  1.428182248692E+01  1.405542761975E+01
  1.381996809773E+01  1.357582486484E+01  1.332341078941E+01  1.306316956260E+01
  1.279557437700E+01  1.252112638710E+01  1.224035295480E+01  1.195380568567E+01
  1.166205826303E+01  1.136570408912E+01  1.106535374430E+01  1.076163227708E+01
  1.045517633941E+01  1.014663118329E+01  9.836647536350E+00  9.525878375572E+00
  9.214975619635E+00  8.904586761856E+00  8.595351467024E+00  8.287898156690E+00
  7.982840608799E+00  7.680774598770E+00  7.382274610343E+00  7.087890645614E+00
  6.798145164712E+00  6.513530186398E+00  6.234504581491E+00  5.961491591322E+00
  5.694876603321E+00  5.435005215238E+00  5.182181618334E+00  4.936667327983E+00
  4.698680287523E+00  4.468394367766E+00  4.245939280327E+00  4.031400917826E+00
  3.824822128244E+00  3.626203924168E+00  3.435507781271E+00  3.252661081059E+00
  3.077564367714E+00  2.910094844580E+00  2.750109077369E+00  2.597447876686E+00
  2.451938124785E+00  2.313394714568E+00  2.181622422470E+00  2.056417748993E+00
  1.937570703863E+00  1.824866526197E+00  1.718087327241E+00  1.617013642880E+00
  1.521425882587E+00  1.431105661118E+00  1.345836999190E+00  1.265407379757E+00
  1.189608647417E+00  1.118237740083E+00  1.051097083012E+00  9.879933354098E-01
  9.287361222595E-01  8.731383966029E-01  8.210168950816E-01  7.721925426981E-01
  7.264908082673E-01  6.837420122032E-01  6.437815884358E-01  6.064503023964E-01
  5.715944271331E-01  5.390658797355E-01  5.087223203494E-01  4.804272161553E-01
  4.540498727659E-01  4.294654355668E-01  4.065548635743E-01  3.852048784237E-01
  3.653078911049E-01  3.467619090461E-01  3.294704260863E-01  3.133422977829E-01
  2.982916043558E-01  2.842375033936E-01  2.711040742245E-01  2.588201556226E-01
  2.473191782666E-01  2.365389931399E-01  2.264216968481E-01  2.169134546669E-01
  2.079643220187E-01  1.995280650084E-01  1.915619806289E-01  1.840267172571E-01
  1.768860960874E-01  1.701069341801E-01  1.636588698220E-01  1.575141908952E-01
  1.516476669321E-01  1.460363854865E-01  1.406595933905E-01  1.354985433869E-01
  1.305363465440E-01  1.257578307672E-01  1.211494056410E-01  1.166989337465E-01
  1.123956085344E-01  1.082298387623E-01  1.041931394551E-01  1.002780292988E-01
  9.647793434249E-02  9.278709785283E-02  8.920049614183E-02  8.571376017292E-02
  8.232310273533E-02  7.902525096926E-02  7.581738401752E-02  7.269707557633E-02
  6.966224111617E-02  6.671108954395E-02  6.384207907900E-02  6.105387711777E-02
  5.834532386539E-02  5.571539951599E-02  5.316319476802E-02  5.068788446546E-02
  4.828870416107E-02  4.596492940299E-02  4.371585755201E-02  4.154079194239E-02
  3.943902820594E-02  3.740984258532E-02  3.545248206983E-02  3.356615619446E-02
  3.175003035115E-02  3.000322046973E-02  2.832478893552E-02  2.671374162041E-02
  2.516902591471E-02  2.368952965807E-02  2.227408087887E-02  2.092144826283E-02
  1.963034228197E-02  1.839941691759E-02  1.722727197078E-02  1.611245582761E-02
  1.505346873449E-02  1.404876650296E-02  1.309676461994E-02  1.219584272881E-02
  1.134434944385E-02  1.054060745564E-02  9.782918879554E-03  9.069570793665E-03
  8.398840907237E-03  7.769003296236E-03  7.178334139645E-03  6.625117389126E-03
  6.107650305424E-03  5.624248797735E-03  5.173252506935E-03  4.753029579816E-03
  4.361981088975E-03  3.998545061428E-03  3.661200087874E-03  3.348468493542E-03
  3.058919060377E-03  2.791169298554E-03  2.543887272969E-03  2.315792997016E-03
  2.105659411767E-03  1.912312973379E-03  1.734633875325E-03  1.571555934785E-03
  1.422066174405E-03  1.285204131629E-03  1.160060928110E-03  1.045778131316E-03
  9.415464395627E-04  8.466042203336E-04  7.602359300528E-04  6.817704414935E-04
  6.105793028518E-04  5.460749502367E-04  4.877088929981E-04  4.349698889959E-04
  3.873821246418E-04  3.445034123742E-04  3.059234161798E-04  2.712619138845E-04
  2.401671032196E-04  2.123139571349E-04  1.874026324835E-04  1.651569350486E-04
  1.453228429037E-04  1.276670892878E-04  1.119758055230E-04  9.805322398151E-05
  8.572044070651E-05  7.481423698369E-05  6.518595893704E-05  5.670045405461E-05
  4.923506343279E-05  4.267866844141E-05  3.693079044839E-05  3.190074219303E-05
  2.750682935427E-05  2.367560082150E-05  2.034114613669E-05  1.744443853817E-05
  1.493272199706E-05  1.275894059862E-05  1.088120858379E-05  9.262319331694E-06
  7.869291534797E-06  6.672950794751E-06  5.647544850752E-06  4.770390644489E-06
  4.021551426741E-06  3.383542121083E-06  2.841061179922E-06  2.380747196987E-06
  1.990958578056E-06  1.661574617363E-06  1.383816380094E-06  1.150085850634E-06
  9.538218708196E-07  7.893714614050E-07  6.518751920995E-07  5.371653400547E-07
  4.416756524666E-07  3.623616052213E-07  2.966301254018E-07  2.422778202762E-07
  1.974368284900E-07  1.605274800248E-07  1.302170196559E-07  1.053837137536E-07
  8.508572208754E-08  6.853417459771E-08  5.506994778144E-08  4.414368634678E-08
  3.529866310148E-08  2.815611372347E-08  2.240272317962E-08  1.777997724083E-08
  1.407512592616E-08  1.111353595263E-08  8.752236611657E-09  6.874487605705E-09
  5.385221905578E-09  4.207224960523E-09  3.165471244906E-09  2.459709351396E-09
  1.905984612188E-09  1.472759453032E-09  1.134769138592E-09  8.718317946543E-10
  6.678722288595E-10  5.101235222182E-10  3.884759747697E-10  2.949478129018E-10
  2.232561968823E-10  1.684705901499E-10  1.267335460441E-10  9.503650325604E-11
  7.104032095842E-11  5.293208372210E-11  3.931121377159E-11  2.909918666026E-11
  2.146819340773E-11  1.578495997896E-11  1.156665175343E-11  8.446380490196E-12
  6.146314946662E-12  4.456791429481E-12  3.220142163072E-12  2.318220164206E-12
  1.662810017443E-12  1.188283540266E-12  8.459953139031E-13  6.000216803749E-13
  4.239332404991E-13  2.983593982262E-13  2.091575882922E-13  1.460423630413E-13
  1.015628347175E-13  7.034296439976E-14  4.851938638438E-14  3.332708582863E-14
  2.279529125561E-14  1.552518576650E-14  1.052810326252E-14  7.108249752107E-15
  4.778061076096E-15  3.197379410577E-15  2.129937254349E-15  1.412361978807E-15
  9.321974746945E-16  6.123903731924E-16  4.003896595332E-16  2.605233499049E-16
  1.686920803676E-16  1.086930072513E-16  6.968538569401E-17  4.445176552351E-17
  2.821091808605E-17  1.781146735452E-17  1.118689356196E-17  6.989069624563E-18
  4.343118493914E-18  2.684284248844E-18  1.649952968449E-18  1.008561176893E-18
  6.130439126447E-19  3.705188132278E-19  2.226530344116E-19  1.330199006684E-19
  7.900305346746E-20  4.664226523795E-20  2.737113210752E-20  1.596436869604E-20
  9.253898026532E-21  5.330640106279E-21  3.051286818552E-21  1.735412172795E-21
  9.806288854191E-22  5.504973313190E-22  3.069868927413E-22  1.700448549677E-22
  9.355162166190E-23  0.000000000000E+00  0.000000000000E+00  0.000000000000E+00
  0.000000000000E+00
</data>
</radfunc>
</valence-charge>
<pseudocore-charge matching-radius="0.535673147899"
 number-of-continuous-derivatives="4">
<annotation model-charge-form="Teter function with specified parameters" />
<radfunc>
<data npts="290">
  4.103308510459E+01  4.102720611396E+01  4.100963444221E+01  4.098032755478E+01
  4.093959899567E+01  4.088607720161E+01  4.081791691052E+01  4.073993976285E+01
  4.065235493857E+01  4.055034032315E+01  4.043551130427E+01  4.031089103480E+01
  4.016054581934E+01  4.000383596342E+01  3.981938154992E+01  3.963561138340E+01
  3.942454681175E+01  3.922502541331E+01  3.900135899011E+01  3.875078651298E+01
  3.847027436735E+01  3.822208622592E+01  3.795077869948E+01  3.765438789056E+01
  3.733082283945E+01  3.697786607831E+01  3.659317660561E+01  3.628236011770E+01
  3.595123569317E+01  3.559869476219E+01  3.522360192094E+01  3.482480014488E+01
  3.440111720566E+01  3.395137344487E+01  3.347439106644E+01  3.296900511643E+01
  3.243407632293E+01  3.186850596880E+01  3.147391891733E+01  3.106495879191E+01
  3.064135328069E+01  3.020285113203E+01  2.974922544046E+01  2.928027716688E+01
  2.879583889382E+01  2.829577881402E+01  2.778000494747E+01  2.724846957800E+01
  2.670117389644E+01  2.613817283213E+01  2.555958004903E+01  2.496557307613E+01
  2.435639853494E+01  2.373237741862E+01  2.309391036915E+01  2.244148288904E+01
  2.177567041470E+01  2.109714316740E+01  2.040667068736E+01  1.970512594464E+01
  1.899348890952E+01  1.827284945382E+01  1.754440944401E+01  1.680948387723E+01
  1.606950090353E+01  1.532600057101E+01  1.458063212766E+01  1.420779158916E+01
  1.383514971300E+01  1.346294115871E+01  1.309140627722E+01  1.272079081325E+01
  1.235134557437E+01  1.198332606595E+01  1.161699209112E+01  1.125260731527E+01
  1.089043879442E+01  1.053075646728E+01  1.017383261082E+01  9.819941259396E+00
  9.469357587720E+00  9.122357258248E+00  8.779215733677E+00  8.440207555669E+00
  8.105605591125E+00  7.775680247667E+00  7.450698660311E+00  7.130923851667E+00
  6.816613868341E+00  6.508020896585E+00  6.205390360641E+00  5.908960007561E+00
  5.618958982730E+00  5.335606900650E+00  5.059112915972E+00  4.789674800099E+00
  4.527478029074E+00  4.272694888780E+00  4.025483603832E+00  3.785987496784E+00
  3.554334184567E+00  3.330634819239E+00  3.114983380333E+00  2.907456026125E+00
  2.708110511238E+00  2.516985677920E+00  2.334101028225E+00  2.159456384139E+00
  1.993031642368E+00  1.834786630146E+00  1.684661067906E+00  1.542574644059E+00
  1.408427206429E+00  1.282099074064E+00  1.163451472221E+00  1.052327092294E+00
  9.485507773071E-01  8.519303323744E-01  7.622574582074E-01  6.793088043479E-01
  6.028471373555E-01  5.326226176733E-01  4.683741773640E-01  4.098309893771E-01
  3.567140174909E-01  3.087376346065E-01  2.656112956741E-01  2.270412502447E-01
  1.927322784837E-01  1.623894334981E-01  1.357197720410E-01  1.124340550988E-01
  9.224839956650E-02  7.488586220732E-02  6.007793738006E-02  4.756595064430E-02
  3.710233130851E-02  2.845174829093E-02  2.139209530875E-02  1.571531338982E-02
  1.122804099334E-02  7.752084602996E-03  5.124705479487E-03  3.198721280849E-03
  1.842424420903E-03  9.393222721743E-04  3.877075557635E-04  1.000704168858E-04
  2.366677119465E-06  3.315949672493E-05  1.426540877573E-04  2.916471097595E-04
  4.504138803775E-04  5.975574793357E-04  7.188441654889E-04  8.060492294899E-04
  8.558364547947E-04  8.686927648961E-04  8.479374257971E-04  7.988224049302E-04
  7.277372400037E-04  6.415281451268E-04  5.469371985298E-04  4.501634539009E-04
  3.565438446619E-04  2.703479614255E-04  1.946773297017E-04  1.314568407292E-04
  8.150361927935E-05  4.465695016899E-05  1.995200059140E-05  5.820001934898E-06
  2.982854161171E-07  1.235050897988E-06  6.475895985577E-06  1.402181258378E-05
  2.215140776223E-05  2.950333851199E-05  3.511816666313E-05  3.844184184996E-05
  3.929562172034E-05  3.781928169495E-05  3.439583334780E-05  2.956659260310E-05
  2.394530470009E-05  1.813918957326E-05  1.268332285479E-05  7.992867177141E-06
  4.335505673129E-06  1.824214775342E-06  4.284580521293E-07  1.792782409201E-10
  3.097752302795E-07  1.086636184906E-06  2.058888339313E-06  2.987620702138E-06
  3.692025868869E-06  4.063370343932E-06  4.067339353908E-06  3.735863611527E-06
  3.150834361679E-06  2.422990011967E-06  1.669614546639E-06  9.945005863663E-07
  4.729521498840E-07  1.435582146498E-07  7.234697443481E-09  0.000000000000E+00
  0.000000000000E+00  0.000000000000E+00  0.000000000000E+00  0.000000000000E+00
  0.000000000000E+00  0.000000000000E+00  0.000000000000E+00  0.000000000000E+00
  0.000000000000E+00  0.000000000000E+00  0.000000000000E+00  0.000000000000E+00
  0.000000000000E+00  0.000000000000E+00  0.000000000000E+00  0.000000000000E+00
  0.000000000000E+00  0.000000000000E+00  0.000000000000E+00  0.000000000000E+00
  0.000000000000E+00  0.000000000000E+00  0.000000000000E+00  0.000000000000E+00
  0.000000000000E+00  0.000000000000E+00  0.000000000000E+00  0.000000000000E+00
  0.000000000000E+00  0.000000000000E+00  0.000000000000E+00  0.000000000000E+00
  0.000000000000E+00  0.000000000000E+00  0.000000000000E+00  0.000000000000E+00
  0.000000000000E+00  0.000000000000E+00  0.000000000000E+00  0.000000000000E+00
  0.000000000000E+00  0.000000000000E+00  0.000000000000E+00  0.000000000000E+00
  0.000000000000E+00  0.000000000000E+00  0.000000000000E+00  0.000000000000E+00
  0.000000000000E+00  0.000000000000E+00  0.000000000000E+00  0.000000000000E+00
  0.000000000000E+00  0.000000000000E+00  0.000000000000E+00  0.000000000000E+00
  0.000000000000E+00  0.000000000000E+00  0.000000000000E+00  0.000000000000E+00
  0.000000000000E+00  0.000000000000E+00  0.000000000000E+00  0.000000000000E+00
  0.000000000000E+00  0.000000000000E+00  0.000000000000E+00  0.000000000000E+00
  0.000000000000E+00  0.000000000000E+00  0.000000000000E+00  0.000000000000E+00
  0.000000000000E+00  0.000000000000E+00  0.000000000000E+00  0.000000000000E+00
  0.000000000000E+00  0.000000000000E+00  0.000000000000E+00  0.000000000000E+00
  0.000000000000E+00  0.000000000000E+00
</data>
</radfunc>
</pseudocore-charge>
<semilocal-potentials set="scalar_relativistic">
<slps n="3" l="s" rc="1.35825043251" eref="-2.29502611713">
<radfunc>
<data npts="290">
 -2.355398378977E+00 -2.357943827425E+00 -2.365546650073E+00 -2.378220366490E+00
 -2.395820499764E+00 -2.418926433997E+00 -2.448314972140E+00 -2.481885535034E+00
 -2.519528054811E+00 -2.563286737561E+00 -2.612432387079E+00 -2.665637633750E+00
 -2.729645251257E+00 -2.796153351810E+00 -2.874164290342E+00 -2.951595077985E+00
 -3.040170527309E+00 -3.123554440315E+00 -3.216630606938E+00 -3.320407007634E+00
 -3.435966074433E+00 -3.537670250248E+00 -3.648274876587E+00 -3.768426718292E+00
 -3.898793525333E+00 -4.040059123883E+00 -4.192917134489E+00 -4.315586783756E+00
 -4.445459729591E+00 -4.582822103383E+00 -4.727952005456E+00 -4.881116117009E+00
 -5.042565924570E+00 -5.212533548722E+00 -5.391227174936E+00 -5.578826091610E+00
 -5.775475348815E+00 -5.981280060831E+00 -6.123600859616E+00 -6.270023009268E+00
 -6.420540229661E+00 -6.575134197325E+00 -6.733773663714E+00 -6.896413567304E+00
 -7.062994144967E+00 -7.233440048490E+00 -7.407659472571E+00 -7.585543301073E+00
 -7.766964278656E+00 -7.951776215323E+00 -8.139813231687E+00 -8.330889053105E+00
 -8.524796361026E+00 -8.721306210127E+00 -8.920167520020E+00 -9.121106650364E+00
 -9.323827068428E+00 -9.528009118084E+00 -9.733309899313E+00 -9.939363267152E+00
 -1.014577995889E+01 -1.035214785797E+01 -1.055803240267E+01 -1.076297714680E+01
 -1.096650447873E+01 -1.116811650394E+01 -1.136729609435E+01 -1.146580716101E+01
 -1.156350810596E+01 -1.166032944852E+01 -1.175620076421E+01 -1.185105073698E+01
 -1.194480721387E+01 -1.203739726210E+01 -1.212874722838E+01 -1.221878280057E+01
 -1.230742907146E+01 -1.239461060474E+01 -1.248025150290E+01 -1.256427547725E+01
 -1.264660591983E+01 -1.272716597722E+01 -1.280587862627E+01 -1.288266675163E+01
 -1.295745322527E+01 -1.303016098778E+01 -1.310071313167E+01 -1.316903298658E+01
 -1.323504420655E+01 -1.329867085940E+01 -1.335983751811E+01 -1.341846935461E+01
 -1.347449223557E+01 -1.352783282065E+01 -1.357841866293E+01 -1.362617831157E+01
 -1.367104141672E+01 -1.371293883653E+01 -1.375180274605E+01 -1.378756674794E+01
 -1.382016598469E+01 -1.384953725206E+01 -1.387561911332E+01 -1.389835201395E+01
 -1.391767839621E+01 -1.393354281302E+01 -1.394589204064E+01 -1.395467518915E+01
 -1.395984381022E+01 -1.396135200112E+01 -1.395915650419E+01 -1.395321680061E+01
 -1.394349519775E+01 -1.392995690880E+01 -1.391257012403E+01 -1.389130607262E+01
 -1.386613907445E+01 -1.383704658133E+01 -1.380400920759E+01 -1.376701075008E+01
 -1.372603819850E+01 -1.368108173720E+01 -1.363213474063E+01 -1.357919376519E+01
 -1.352225854137E+01 -1.346133197090E+01 -1.339642013487E+01 -1.332753232002E+01
 -1.325468107142E+01 -1.317788228134E+01 -1.309715532513E+01 -1.301252325634E+01
 -1.292401307452E+01 -1.283165608011E+01 -1.273548833196E+01 -1.263555122372E+01
 -1.253189219569E+01 -1.242456559921E+01 -1.231363373004E+01 -1.219916804656E+01
 -1.208125058726E+01 -1.195997559954E+01 -1.183545138885E+01 -1.170780239294E+01
 -1.157717148038E+01 -1.144372246576E+01 -1.130764282524E+01 -1.116914658599E+01
 -1.102847735082E+01 -1.088591140529E+01 -1.074176083857E+01 -1.059637659165E+01
 -1.045015132754E+01 -1.030352199768E+01 -1.015697195915E+01 -1.001103247756E+01