<preamble>

<basis_specs>
===============================================================================
Ba                   Z=  56    Mass=  137.33        Charge= 0.17397    
Lmxo=2 Lmxkb= 2    BasisType=split      Semic=T
L=0  Nsemic=1  Cnfigmx=6
          n=1  nzeta=1  polorb=0  (5s)
            splnorm:   0.15000    
               vcte:    67.169    
               rinn:    4.8754    
               qcoe:    0.0000    
               qyuk:    0.0000    
               qwid:   0.10000E-01
                rcs:    5.7525    
            lambdas:    1.0000    
          n=2  nzeta=2  polorb=0  (6s)
            splnorm:   0.15000    
               vcte:    232.89    
               rinn:    5.7690    
               qcoe:    0.0000    
               qyuk:    0.0000    
               qwid:   0.10000E-01
                rcs:    7.0262      5.3369    
            lambdas:    1.0000      1.0000    
L=1  Nsemic=1  Cnfigmx=6
          n=1  nzeta=1  polorb=0  (5p)
            splnorm:   0.15000    
               vcte:    49.809    
               rinn:    3.5661    
               qcoe:    0.0000    
               qyuk:    0.0000    
               qwid:   0.10000E-01
                rcs:    6.8527    
            lambdas:    1.0000    
          n=2  nzeta=1  polorb=0  (6p)
            splnorm:   0.15000    
               vcte:    91.264    
               rinn:    5.2002    
               qcoe:    0.0000    
               qyuk:    0.0000    
               qwid:   0.10000E-01
                rcs:    7.5734    
            lambdas:    1.0000    
L=2  Nsemic=0  Cnfigmx=5
          n=1  nzeta=1  polorb=0  (5d)
            splnorm:   0.15000    
               vcte:    78.061    
               rinn:    6.2429    
               qcoe:    0.0000    
               qyuk:    0.0000    
               qwid:   0.10000E-01
                rcs:    6.8527    
            lambdas:    1.0000    
-------------------------------------------------------------------------------
L=0  Nkbl=2  erefs: 0.17977+309 0.17977+309
L=1  Nkbl=2  erefs: 0.17977+309 0.17977+309
L=2  Nkbl=1  erefs: 0.17977+309
===============================================================================
</basis_specs>

<pseudopotential_header>
 Ba ps nrl pcec
 ONCVPSP-3.2018-03-01Hamann's oncvpsp                        
 5s 2.00  r= 1.96/5p 6.00  r= 1.80/5d 0.00  r= 1.91/                   
</pseudopotential_header>
</preamble>
Ba                            # Symbol
Ba                            # Label
   56                         # Atomic number
     10.0000000000                             # Valence charge
     137.330000000        # Mass 
     90.0371870797        # Self energy 
   2   6                      # Lmax for basis, no. of nl orbitals 
   2   6                      # Lmax for projectors, no. of nl KB projectors
# PAOs:__________________________
  0  5  1  0  2.000000   #orbital l, n, z, is_polarized, population
 500    0.1152812610815559E-01     5.752534927969641     # npts, delta, cutoff
     0.000000000000000        0.3455590371859987E-01
    0.1152812610815559E-01    0.3472374195601657E-01
    0.2305625221631119E-01    0.3522714588534674E-01
    0.3458437832446678E-01    0.3606546692925636E-01
    0.4611250443262237E-01    0.3723767832810157E-01
    0.5764063054077797E-01    0.3874234560630171E-01
    0.6916875664893356E-01    0.4057762953324739E-01
    0.8069688275708915E-01    0.4274128989571759E-01
    0.9222500886524475E-01    0.4523069005950130E-01
    0.1037531349734003        0.4804280229599738E-01
    0.1152812610815559        0.5117421384798668E-01
    0.1268093871897115        0.5462113370718701E-01
    0.1383375132978671        0.5837940007452543E-01
    0.1498656394060227        0.6244448847223859E-01
    0.1613937655141783        0.6681152047491527E-01
    0.1729218916223339        0.7147527302464804E-01
    0.1844500177304895        0.7643018829359897E-01
    0.1959781438386451        0.8167038405552556E-01
    0.2075062699468007        0.8718966452636469E-01
    0.2190343960549563        0.9298153163277655E-01
    0.2305625221631119        0.9903919666667609E-01
    0.2420906482712675        0.1053555922832117    
    0.2536187743794230        0.1119233847994036    
    0.2651469004875787        0.1187349867507354    
    0.2766750265957342        0.1257825696633848    
    0.2882031527038899        0.1330580770004425    
    0.2997312788120454        0.1405532372414493    
    0.3112594049202010        0.1482595770558031    
    0.3227875310283566        0.1561684345320515    
    0.3343156571365122        0.1642709724268122    
    0.3458437832446678        0.1725581913989440    
    0.3573719093528234        0.1810209431967062    
    0.3689000354609790        0.1896499437678794    
    0.3804281615691346        0.1984357862652116    
    0.3919562876772902        0.2073689539220477    
    0.4034844137854458        0.2164398327755747    
    0.4150125398936014        0.2256387242177509    
    0.4265406660017569        0.2349558573566429    
    0.4380687921099126        0.2443814011735673    
    0.4495969182180681        0.2539054764640687    
    0.4611250443262238        0.2635181675533496    
    0.4726531704343793        0.2732095337793079    
    0.4841812965425349        0.2829696207387191    
    0.4957094226506905        0.2927884712944269    
    0.5072375487588461        0.3026561363435414    
    0.5187656748670018        0.3125626853486339    
    0.5302938009751573        0.3224982166357487    
    0.5418219270833129        0.3324528674646255    
    0.5533500531914685        0.3424168238779581    
    0.5648781792996240        0.3523803303377167    
    0.5764063054077797        0.3623336991574556    
    0.5879344315159353        0.3722673197402913    
    0.5994625576240908        0.3821716676327247    
    0.6109906837322464        0.3920373134046563    
    0.6225188098404021        0.4018549313659944    
    0.6340469359485577        0.4116153081300180    
    0.6455750620567132        0.4213093510331262    
    0.6571031881648688        0.4309280964199937    
    0.6686313142730245        0.4404627178022102    
    0.6801594403811800        0.4499045338973721    
    0.6916875664893356        0.4592450165543916    
    0.7032156925974912        0.4684757985692465    
    0.7147438187056468        0.4775886813939214    
    0.7262719448138024        0.4865756427395033    
    0.7378000709219580        0.4954288440726606    
    0.7493281970301136        0.5041406380027852    
    0.7608563231382691        0.5127035755552117    
    0.7723844492464248        0.5211104133239147    
    0.7839125753545804        0.5293541204951531    
    0.7954407014627359        0.5374278857315420    
    0.8069688275708915        0.5453251239041871    
    0.8184969536790472        0.5530394826586202    
    0.8300250797872027        0.5605648487985970    
    0.8415532058953583        0.5678953544701071    
    0.8530813320035139        0.5750253831265651    
    0.8646094581116696        0.5819495752546813    
    0.8761375842198251        0.5886628338394785    
    0.8876657103279807        0.5951603295458386    
    0.8991938364361363        0.6014375055932561    
    0.9107219625442919        0.6074900822999185    
    0.9222500886524475        0.6133140612718769    
    0.9337782147606031        0.6189057292130608    
    0.9453063408687586        0.6242616613319675    
    0.9568344669769142        0.6293787243213581    
    0.9683625930850699        0.6342540788879120    
    0.9798907191932255        0.6388851818097332    
    0.9914188453013810        0.6432697875007960    
     1.002946971409537        0.6474059490628133    
     1.014475097517692        0.6512920188066926    
     1.026003223625848        0.6549266482276621    
     1.037531349734004        0.6583087874202010    
     1.049059475842159        0.6614376839213086    
     1.060587601950315        0.6643128809730853    
     1.072115728058470        0.6669342151982792    
     1.083643854166626        0.6693018136853289    
     1.095171980274781        0.6714160904822911    
     1.106700106382937        0.6732777425021415    
     1.118228232491093        0.6748877448450596    
     1.129756358599248        0.6762473455464463    
     1.141284484707404        0.6773580597626074    
     1.152812610815559        0.6782216634092942    
     1.164340736923715        0.6788401862713317    
     1.175868863031871        0.6792159046047483    
     1.187396989140026        0.6793513332557782    
     1.198925115248182        0.6792492173240119    
     1.210453241356337        0.6789125233996871    
     1.221981367464493        0.6783444304077251    
     1.233509493572648        0.6775483200935297    
     1.245037619680804        0.6765277671876581    
     1.256565745788960        0.6752865292885277    
     1.268093871897115        0.6738285365039346    
     1.279621998005271        0.6721578808937133    
     1.291150124113426        0.6702788057568528    
     1.302678250221582        0.6681956948073728    
     1.314206376329738        0.6659130612848995    
     1.325734502437893        0.6634355370137486    
     1.337262628546049        0.6607678616703743    
     1.348790754654204        0.6579148716012788    
     1.360318880762360        0.6548814892313302    
     1.371847006870516        0.6516727145767250    
     1.383375132978671        0.6482936113604234    
     1.394903259086827        0.6447492965708395    
     1.406431385194982        0.6410449345172351    
     1.417959511303138        0.6371857253381439    
     1.429487637411294        0.6331768954646257    
     1.441015763519449        0.6290236892961433    
     1.452543889627605        0.6247313606202494    
     1.464072015735760        0.6203051646704546    
     1.475600141843916        0.6157503506109969    
     1.487128267952072        0.6110721544938547    
     1.498656394060227        0.6062757927041191    
     1.510184520168383        0.6013664559059275    
     1.521712646276538        0.5963493034977143    
     1.533240772384694        0.5912294585818880    
     1.544768898492850        0.5860120034506692    
     1.556297024601005        0.5807019755859393    
     1.567825150709161        0.5753043641681204    
     1.579353276817316        0.5698241070848842    
     1.590881402925472        0.5642660884280900    
     1.602409529033628        0.5586351364638019    
     1.613937655141783        0.5529360220567811    
     1.625465781249939        0.5471734575296947    
     1.636993907358094        0.5413520959322179    
     1.648522033466250        0.5354765306958466    
     1.660050159574405        0.5295512956450700    
     1.671578285682561        0.5235808653364672    
     1.683106411790717        0.5175696556939257    
     1.694634537898872        0.5115220249074455    
     1.706162664007028        0.5054422745613252    
     1.717690790115183        0.4993346509578655    
     1.729218916223339        0.4932033466105890    
     1.740747042331495        0.4870525018524917    
     1.752275168439650        0.4808862065367751    
     1.763803294547806        0.4747085017972316    
     1.775331420655961        0.4685233818134172    
     1.786859546764117        0.4623347956105957    
     1.798387672872273        0.4561466488533531    
     1.809915798980428        0.4499628055099913    
     1.821443925088584        0.4437870894402818    
     1.832972051196739        0.4376232858188559    
     1.844500177304895        0.4314751423051016    
     1.856028303413050        0.4253463707566250    
     1.867556429521206        0.4192406460697243    
     1.879084555629362        0.4131616108074300    
     1.890612681737517        0.4071128737081784    
     1.902140807845673        0.4010980181791973    
     1.913668933953828        0.3951205560403431    
     1.925197060061984        0.3891839639401884    
     1.936725186170140        0.3832918169083883    
     1.948253312278295        0.3774475799912734    
     1.959781438386451        0.3716545870563648    
     1.971309564494607        0.3659159558827995    
     1.982837690602762        0.3602333150827183    
     1.994365816710918        0.3546068987497041    
     2.005893942819073        0.3490373781157938    
     2.017422068927229        0.3435258403246460    
     2.028950195035384        0.3380729964754174    
     2.040478321143540        0.3326794092458697    
     2.052006447251696        0.3273456337926470    
     2.063534573359851        0.3220721496057566    
     2.075062699468007        0.3168593676074333    
     2.086590825576162        0.3117076356782495    
     2.098118951684318        0.3066172404520213    
     2.109647077792474        0.3015884122009285    
     2.121175203900629        0.2966213266825980    
     2.132703330008785        0.2917161077470790    
     2.144231456116940        0.2868728299085471    
     2.155759582225096        0.2820915212675073    
     2.167287708333252        0.2773721658470429    
     2.178815834441407        0.2727147060238800    
     2.190343960549563        0.2681190445745827    
     2.201872086657718        0.2635850469034580    
     2.213400212765874        0.2591125431737880    
     2.224928338874030        0.2547013302700671    
     2.236456464982185        0.2503511736882685    
     2.247984591090341        0.2460618093692104    
     2.259512717198496        0.2418329454439317    
     2.271040843306652        0.2376642639146773    
     2.282568969414807        0.2335554222575934    
     2.294097095522963        0.2295060549590810    
     2.305625221631119        0.2255157749871892    
     2.317153347739275        0.2215841751991746    
     2.328681473847430        0.2177108296884625    
     2.340209599955585        0.2138952950726956    
     2.351737726063741        0.2101371117255680    
     2.363265852171897        0.2064358049543000    
     2.374793978280052        0.2027908861249171    
     2.386322104388208        0.1992018537374325    
     2.397850230496363        0.1956681944526516    
     2.409378356604519        0.1921893840726909    
     2.420906482712675        0.1887648884768857    
     2.432434608820830        0.1853941645148287    
     2.443962734928986        0.1820766608584436    
     2.455490861037141        0.1788118188143040    
     2.467018987145297        0.1755990730981827    
     2.478547113253453        0.1724378525730445    
     2.490075239361608        0.1693275809520130    
     2.501603365469764        0.1662676774678570    
     2.513131491577919        0.1632575575101024    
     2.524659617686075        0.1602966332311569    
     2.536187743794231        0.1573843141228841    
     2.547715869902386        0.1545200075644642    
     2.559243996010542        0.1517031193429089    
     2.570772122118697        0.1489330541474442    
     2.582300248226853        0.1462092160384204    
     2.593828374335009        0.1435310088923057    
     2.605356500443164        0.1408978368232767    
     2.616884626551320        0.1383091045825036    
     2.628412752659475        0.1357642179362584    
     2.639940878767631        0.1332625840233191    
     2.651469004875787        0.1308036116926783    
     2.662997130983942        0.1283867118225775    
     2.674525257092098        0.1260112976212080    
     2.686053383200253        0.1236767849100283    
     2.697581509308409        0.1213825923906132    
     2.709109635416564        0.1191281418952758    
     2.720637761524720        0.1169128586223513    
     2.732165887632876        0.1147361713569605    
     2.743694013741031        0.1125975126774212    
     2.755222139849187        0.1104963191481309    
     2.766750265957342        0.1084320314996615    
     2.778278392065498        0.1064040947961681    
     2.789806518173654        0.1044119585908803    
     2.801334644281809        0.1024550770703426    
     2.812862770389965        0.1005329091874659    
     2.824390896498120        0.9864491878409441E-01
     2.835919022606276        0.9679057470370077E-01
     2.847447148714432        0.9496935089423492E-01
     2.858975274822587        0.9318072650177384E-01
     2.870503400930743        0.9142418595553821E-01
     2.882031527038898        0.8969921904427700E-01
     2.893559653147054        0.8800532098461600E-01
     2.905087779255210        0.8634199248188232E-01
     2.916615905363365        0.8470873978341099E-01
     2.928144031471521        0.8310507472486674E-01
     2.939672157579676        0.8153051477004628E-01
     2.951200283687832        0.7998458304418267E-01
     2.962728409795988        0.7846680836122999E-01
     2.974256535904143        0.7697672524552648E-01
     2.985784662012299        0.7551387394791033E-01
     2.997312788120454        0.7407780045669832E-01
     3.008840914228610        0.7266805650385512E-01
     3.020369040336766        0.7128419956649192E-01
     3.031897166444921        0.6992579286405060E-01
     3.043425292553076        0.6859240535138875E-01
     3.054953418661232        0.6728361170803904E-01
     3.066481544769388        0.6599899232384697E-01
     3.078009670877544        0.6473813328126120E-01
     3.089537796985699        0.6350062633443850E-01
     3.101065923093855        0.6228606888544956E-01
     3.112594049202010        0.6109406395778159E-01
     3.124122175310166        0.5992422016724779E-01
     3.135650301418321        0.5877615169064046E-01
     3.147178427526477        0.5764947823220672E-01
     3.158706553634633        0.5654382498819598E-01
     3.170234679742788        0.5545882260953327E-01
     3.181762805850944        0.5439410716293646E-01
     3.193290931959099        0.5334932009052351E-01
     3.204819058067255        0.5232410816805669E-01
     3.216347184175411        0.5131812346200827E-01
     3.227875310283566        0.5033102328553830E-01
     3.239403436391722        0.4936247015347531E-01
     3.250931562499877        0.4841213173652643E-01
     3.262459688608033        0.4747968081466062E-01
     3.273987814716189        0.4656479522973787E-01
     3.285515940824344        0.4566715783783608E-01
     3.297044066932500        0.4478645646078012E-01
     3.308572193040655        0.4392238383738662E-01
     3.320100319148811        0.4307463757409766E-01
     3.331628445256967        0.4224292009575892E-01
     3.343156571365122        0.4142693859565422E-01
     3.354684697473278        0.4062640498518779E-01
     3.366212823581433        0.3984103584402702E-01
     3.377740949689589        0.3907055236934426E-01
     3.389269075797745        0.3831468032525095E-01
     3.400797201905900        0.3757314999165351E-01
     3.412325328014056        0.3684569611378758E-01
     3.423853454122211        0.3613205785077531E-01
     3.435381580230367        0.3543197872449427E-01
     3.446909706338523        0.3474520656795569E-01
     3.458437832446678        0.3407149347428042E-01
     3.469965958554833        0.3341059574484792E-01
     3.481494084662989        0.3276227383744157E-01
     3.493022210771145        0.3212629231478722E-01
     3.504550336879301        0.3150241979245704E-01
     3.516078462987456        0.3089042888693721E-01
     3.527606589095611        0.3029009616347196E-01
     3.539134715203767        0.2970120208405727E-01
     3.550662841311923        0.2912353095515677E-01
     3.562190967420078        0.2855687087545733E-01
     3.573719093528234        0.2800101368364727E-01
     3.585247219636389        0.2745575490602374E-01
     3.596775345744545        0.2692089370426461E-01
     3.608303471852701        0.2639623282311827E-01
     3.619831597960856        0.2588157853835514E-01
     3.631359724069012        0.2537674060434569E-01
     3.642887850177168        0.2488153220219740E-01
     3.654415976285323        0.2439576988775491E-01
     3.665944102393479        0.2391927354005060E-01
     3.677472228501634        0.2345186630935541E-01
     3.689000354609790        0.2299337456604306E-01
     3.700528480717946        0.2254362784936198E-01
     3.712056606826101        0.2210245881677307E-01
     3.723584732934257        0.2166970319303039E-01
     3.735112859042412        0.2124519972016157E-01
     3.746640985150568        0.2082879010749196E-01
     3.758169111258724        0.2042031898227499E-01
     3.769697237366879        0.2001963384032952E-01
     3.781225363475035        0.1962658499751499E-01
     3.792753489583190        0.1924102554144682E-01
     3.804281615691346        0.1886281128379746E-01
     3.815809741799502        0.1849180071292025E-01
     3.827337867907657        0.1812785494715810E-01
     3.838865994015813        0.1777083768860319E-01
     3.850394120123968        0.1742061517738589E-01
     3.861922246232124        0.1707705614658705E-01
     3.873450372340280        0.1674003177765470E-01
     3.884978498448435        0.1640941565645545E-01
     3.896506624556590        0.1608508372979061E-01
     3.908034750664746        0.1576691426276619E-01
     3.919562876772902        0.1545478779651686E-01
     3.931091002881058        0.1514858710668972E-01
     3.942619128989213        0.1484819716234623E-01
     3.954147255097368        0.1455350508584318E-01
     3.965675381205524        0.1426440011298565E-01
     3.977203507313680        0.1398077355395544E-01
     3.988731633421835        0.1370251875486115E-01
     4.000259759529991        0.1342953105973500E-01
     4.011787885638147        0.1316170777352672E-01
     4.023316011746302        0.1289894812531253E-01
     4.034844137854458        0.1264115323233880E-01
     4.046372263962613        0.1238822606445525E-01
     4.057900390070769        0.1214007140952860E-01
     4.069428516178925        0.1189659583906790E-01
     4.080956642287080        0.1165770767464757E-01
     4.092484768395236        0.1142331695472179E-01
     4.104012894503391        0.1119333540233473E-01
     4.115541020611547        0.1096767639309005E-01
     4.127069146719703        0.1074625492382010E-01
     4.138597272827858        0.1052898758180396E-01
     4.150125398936014        0.1031579251441567E-01
     4.161653525044169        0.1010658939955780E-01
     4.173181651152325        0.9901299416371688E-02
     4.184709777260481        0.9699845216606802E-02
     4.196237903368636        0.9502150896391013E-02
     4.207766029476792        0.9308141968688875E-02
     4.219294155584947        0.9117745336079208E-02
     4.230822281693102        0.8930889264101700E-02
     4.242350407801259        0.8747503355076087E-02
     4.253878533909414        0.8567518522355374E-02
     4.265406660017570        0.8390866965123504E-02
     4.276934786125725        0.8217482143567397E-02
     4.288462912233880        0.8047298754555740E-02
     4.299991038342037        0.7880252707645049E-02
     4.311519164450192        0.7716281101729722E-02
     4.323047290558348        0.7555322201914175E-02
     4.334575416666503        0.7397315416891889E-02
     4.346103542774658        0.7242201276670197E-02
     4.357631668882815        0.7089921410944599E-02
     4.369159794990970        0.6940418527353297E-02
     4.380687921099126        0.6793636390624016E-02
     4.392216047207281        0.6649519801866393E-02
     4.403744173315436        0.6508014578394080E-02
     4.415272299423592        0.6369067533299017E-02
     4.426800425531748        0.6232626456684424E-02
     4.438328551639904        0.6098640095940306E-02
     4.449856677748059        0.5967058136987510E-02
     4.461384803856214        0.5837831185582748E-02
     4.472912929964370        0.5710910749828372E-02
     4.484441056072526        0.5586249221127039E-02
     4.495969182180682        0.5463799857384223E-02
     4.507497308288837        0.5343516765590192E-02
     4.519025434396992        0.5225354884950474E-02
     4.530553560505148        0.5109269969995316E-02
     4.542081686613304        0.4995218574701076E-02
     4.553609812721460        0.4883158036166303E-02
     4.565137938829615        0.4773046459192777E-02
     4.576666064937771        0.4664842699756849E-02
     4.588194191045926        0.4558506351407206E-02
     4.599722317154082        0.4453997729385850E-02
     4.611250443262238        0.4351277856167136E-02
     4.622778569370393        0.4250308446520691E-02
     4.634306695478549        0.4151051895518211E-02
     4.645834821586704        0.4053471261354841E-02
     4.657362947694859        0.3957530253630968E-02
     4.668891073803016        0.3863193219486681E-02
     4.680419199911171        0.3770425130409015E-02
     4.691947326019327        0.3679191569874193E-02
     4.703475452127482        0.3589458717905876E-02
     4.715003578235637        0.3501193343065434E-02
     4.726531704343794        0.3414362787173815E-02
     4.738059830451949        0.3328934953953133E-02
     4.749587956560105        0.3244878361129031E-02
     4.761116082668260        0.3162161840262851E-02
     4.772644208776415        0.3080754992602818E-02
     4.784172334884571        0.3000627866558661E-02
     4.795700460992727        0.2921751017165015E-02
     4.807228587100883        0.2844096074368861E-02
     4.818756713209038        0.2767633151576498E-02
     4.830284839317193        0.2692334925401907E-02
     4.841812965425349        0.2618173941158217E-02
     4.853341091533505        0.2545123205374832E-02
     4.864869217641661        0.2473155086934310E-02
     4.876397343749816        0.2402245868690676E-02
     4.887925469857971        0.2332368594961797E-02
     4.899453595966127        0.2263497617247986E-02
     4.910981722074283        0.2195607582887379E-02
     4.922509848182439        0.2128668299376876E-02
     4.934037974290594        0.2062666824494208E-02
     4.945566100398749        0.1997574481448153E-02
     4.957094226506905        0.1933367769216558E-02
     4.968622352615061        0.1870024157498193E-02
     4.980150478723217        0.1807522644472901E-02
     4.991678604831372        0.1745855571989372E-02
     5.003206730939527        0.1684980081050796E-02
     5.014734857047683        0.1624897559695786E-02
     5.026262983155839        0.1565602513166456E-02
     5.037791109263995        0.1507095307208076E-02
     5.049319235372150        0.1449378733484834E-02
     5.060847361480305        0.1392473944081497E-02
     5.072375487588461        0.1336395999139882E-02
     5.083903613696616        0.1281169005050889E-02
     5.095431739804773        0.1226822111473940E-02
     5.106959865912928        0.1173388910929187E-02
     5.118487992021084        0.1120900891404859E-02
     5.130016118129239        0.1069412373065662E-02
     5.141544244237394        0.1018958434109590E-02
     5.153072370345551        0.9695812887505946E-03
     5.164600496453706        0.9213229414588782E-03
     5.176128622561862        0.8742259951514936E-03
     5.187656748670017        0.8283261706410925E-03
     5.199184874778172        0.7836619534346083E-03
     5.210713000886328        0.7402675205483993E-03
     5.222241126994484        0.6981737430561244E-03
     5.233769253102640        0.6574077781456480E-03
     5.245297379210795        0.6179943148848813E-03
     5.256825505318950        0.5799485232679594E-03
     5.268353631427106        0.5432865311494284E-03
     5.279881757535262        0.5080183841834324E-03
     5.291409883643418        0.4741496285954434E-03
     5.302938009751573        0.4416813129023087E-03
     5.314466135859728        0.4106101529123700E-03
     5.325994261967884        0.3809281075850013E-03
     5.337522388076040        0.3526233281542164E-03
     5.349050514184196        0.3256797669463926E-03
     5.360578640292351        0.3000774895082575E-03
     5.372106766400506        0.2758333338911358E-03
     5.383634892508662        0.2528324247209831E-03
     5.395163018616818        0.2310820438111788E-03
     5.406691144724974        0.2105522977942060E-03
     5.418219270833129        0.1912121024186520E-03
     5.429747396941284        0.1730285405332113E-03
     5.441275523049440        0.1556987069090175E-03
     5.452803649157596        0.1397718327712719E-03
     5.464331775265752        0.1249428184277555E-03
     5.475859901373907        0.1111373936407395E-03
     5.487388027482062        0.9826469824554491E-04
     5.498916153590218        0.8622242404705793E-04
     5.510444279698373        0.7514954732833343E-04
     5.521972405806530        0.6440050716800703E-04
     5.533500531914685        0.5413309500226641E-04
     5.545028658022840        0.4430824877801521E-04
     5.556556784130996        0.3493195033655723E-04
     5.568084910239151        0.2605998988956978E-04
     5.579613036347308        0.1730633945990433E-04
     5.591141162455463        0.9895642886163330E-05
     5.602669288563618        0.3573859393273196E-05
     5.614197414671774       -0.1462440699845586E-05
     5.625725540779929       -0.5034931308190974E-05
     5.637253666888085       -0.7006436919509528E-05
     5.648781792996241       -0.6157111522923999E-05
     5.660309919104397       -0.4907919844607863E-05
     5.671838045212552       -0.2517059767557541E-05
     5.683366171320707        0.6789717440625503E-06
     5.694894297428863        0.4215468985127032E-05
     5.706422423537019        0.7485504576330795E-05
     5.717950549645175        0.6301594690385369E-05
     5.729478675753330        0.6303660578470115E-05
     5.741006801861485        0.4414806720947052E-05
     5.752534927969641         0.000000000000000    
  0  6  1  0  2.000000   #orbital l, n, z, is_polarized, population
 500    0.1408050466429000E-01     7.026171827480711     # npts, delta, cutoff
     0.000000000000000        0.2121540266046475E-01
    0.1408050466429000E-01    0.2136742160436494E-01
    0.2816100932858000E-01    0.2182316786331870E-01
    0.4224151399287000E-01    0.2258151838068359E-01
    0.5632201865716001E-01    0.2364064366548993E-01
    0.7040252332145001E-01    0.2499800196246665E-01