<preamble>

<basis_specs>
===============================================================================
O                    Z=   8    Mass=  16.000        Charge=-0.29809    
Lmxo=2 Lmxkb= 2    BasisType=split      Semic=F
L=0  Nsemic=0  Cnfigmx=2
          n=1  nzeta=2  polorb=0  (2s)
            splnorm:   0.15000    
               vcte:    32.110    
               rinn:    3.1133    
               qcoe:    0.0000    
               qyuk:    0.0000    
               qwid:   0.10000E-01
                rcs:    6.0225      2.9167    
            lambdas:    1.0000      1.0000    
L=1  Nsemic=0  Cnfigmx=2
          n=1  nzeta=2  polorb=0  (2p)
            splnorm:   0.15000    
               vcte:    32.574    
               rinn:    3.1615    
               qcoe:    0.0000    
               qyuk:    0.0000    
               qwid:   0.10000E-01
                rcs:    5.8738      3.8400    
            lambdas:    1.0000      1.0000    
L=2  Nsemic=0  Cnfigmx=3
          n=1  nzeta=1  polorb=0  (3d)
            splnorm:   0.15000    
               vcte:    36.271    
               rinn:   0.85992    
               qcoe:    0.0000    
               qyuk:    0.0000    
               qwid:   0.10000E-01
                rcs:    4.5745    
            lambdas:    1.0000    
-------------------------------------------------------------------------------
L=0  Nkbl=1  erefs: 0.17977+309
L=1  Nkbl=1  erefs: 0.17977+309
L=2  Nkbl=1  erefs: 0.17977+309
===============================================================================
</basis_specs>

<pseudopotential_header>
 O  ps nrl pcec
 ONCVPSP-3.2018-03-01Hamann's oncvpsp                        
 2s 2.00  r= 1.26/2p 4.00  r= 1.36/3d 0.00  r= 1.26/                   
</pseudopotential_header>
</preamble>
O                             # Symbol
O                             # Label
    8                         # Atomic number
     6.00000000000                             # Valence charge
     16.0000000000        # Mass 
     48.1149463796        # Self energy 
   2   5                      # Lmax for basis, no. of nl orbitals 
   2   5                      # Lmax for projectors, no. of nl KB projectors
# PAOs:__________________________
  0  2  1  0  2.000000   #orbital l, n, z, is_polarized, population
 500    0.1206919327127308E-01     6.022527442365269     # npts, delta, cutoff
     0.000000000000000         1.222436228451579    
    0.1206919327127308E-01     1.222551300782628    
    0.2413838654254617E-01     1.222910015297481    
    0.3620757981381925E-01     1.223505832644741    
    0.4827677308509234E-01     1.224335692478590    
    0.6034596635636542E-01     1.225395314620612    
    0.7241515962763850E-01     1.226679203152291    
    0.8448435289891160E-01     1.228180652639747    
    0.9655354617018468E-01     1.229891756751543    
    0.1086227394414578         1.231803419747503    
    0.1206919327127308         1.233905371360378    
    0.1327611259840039         1.236186185602911    
    0.1448303192552770         1.238633304024021    
    0.1568995125265501         1.241233063913504    
    0.1689687057978232         1.243970731916859    
    0.1810378990690963         1.246830543471768    
    0.1931070923403694         1.249795748416274    
    0.2051762856116424         1.252848663046138    
    0.2172454788829155         1.255970728815940    
    0.2293146721541886         1.259142577785898    
    0.2413838654254617         1.262344104815229    
    0.2534530586967348         1.265554546394875    
    0.2655222519680079         1.268752565899438    
    0.2775914452392809         1.271916344922713    
    0.2896606385105540         1.275023680246024    
    0.3017298317818271         1.278052085876547    
    0.3137990250531002         1.280978899487211    
    0.3258682183243733         1.283781392493442    
    0.3379374115956464         1.286436882917757    
    0.3500066048669194         1.288922850123514    
    0.3620757981381925         1.291217050444728    
    0.3741449914094656         1.293297632700681    
    0.3862141846807387         1.295143252560017    
    0.3982833779520118         1.296733184707225    
    0.4103525712232849         1.298047431760796    
    0.4224217644945580         1.299066828893028    
    0.4344909577658310         1.299773143104706    
    0.4465601510371041         1.300149166113045    
    0.4586293443083772         1.300178799824278    
    0.4706985375796503         1.299847133392021    
    0.4827677308509234         1.299140510922899    
    0.4948369241221965         1.298046588996198    
    0.5069061173934696         1.296554383325173    
    0.5189753106647427         1.294654304105191    
    0.5310445039360158         1.292338179858284    
    0.5431136972072887         1.289599269871650    
    0.5551828904785618         1.286432265608946    
    0.5672520837498349         1.282833281717543    
    0.5793212770211080         1.278799837438871    
    0.5913904702923811         1.274330829343937    
    0.6034596635636542         1.269426496366168    
    0.6155288568349273         1.264088378104881    
    0.6275980501062004         1.258319267343995    
    0.6396672433774735         1.252123157690938    
    0.6517364366487466         1.245505187201771    
    0.6638056299200197         1.238471578826007    
    0.6758748231912928         1.231029578478447    
    0.6879440164625659         1.223187391520766    
    0.7000132097338388         1.214954118408154    
    0.7120824030051119         1.206339690220406    
    0.7241515962763850         1.197354804552976    
    0.7362207895476581         1.188010864084230    
    0.7482899828189312         1.178319914994651    
    0.7603591760902043         1.168294617802469    
    0.7724283693614774         1.157948089662256    
    0.7844975626327505         1.147293966207787    
    0.7965667559040236         1.136346300001635    
    0.8086359491752967         1.125119520228801    
    0.8207051424465698         1.113628386554608    
    0.8327743357178429         1.101887946897170    
    0.8448435289891160         1.089913497617171    
    0.8569127222603889         1.077720545834583    
    0.8689819155316620         1.065324773494723    
    0.8810511088029351         1.052742002764463    
    0.8931203020742082         1.039988162314513    
    0.9051894953454813         1.027079254035551    
    0.9172586886167544         1.014031319744389    
    0.9293278818880275         1.000860407460705    
    0.9413970751593006        0.9875825368739619    
    0.9534662684305737        0.9742136636727718    
    0.9655354617018468        0.9607696424731687    
    0.9776046549731199        0.9472661881565250    
    0.9896738482443930        0.9337188355095616    
     1.001743041515666        0.9201428971461540    
     1.013812234786939        0.9065534197807577    
     1.025881428058212        0.8929651390138795    
     1.037950621329485        0.8793924328790442    
     1.050019814600758        0.8658492744847399    
     1.062089007872032        0.8523491841630921    
     1.074158201143305        0.8389051816060102    
     1.086227394414577        0.8255297385283388    
     1.098296587685851        0.8122347324442893    
     1.110365780957124        0.7990314021765156    
     1.122434974228397        0.7859303057360623    
     1.134504167499670        0.7729412812156385    
     1.146573360770943        0.7600734113267146    
     1.158642554042216        0.7473349921861915    
     1.170711747313489        0.7347335069152020    
     1.182780940584762        0.7222756045604374    
     1.194850133856035        0.7099670847815504    
     1.206919327127308        0.6978128886601648    
     1.218988520398582        0.6858170958867875    
     1.231057713669855        0.6739829287362267    
     1.243126906941128        0.6623127607260909    
     1.255196100212401        0.6508081461502542    
     1.267265293483674        0.6394698055252478    
     1.279334486754947        0.6282978318515988    
     1.291403680026220        0.6172919591161249    
     1.303472873297493        0.6064517798759158    
     1.315542066568766        0.5957767187411267    
     1.327611259840039        0.5852660529528741    
     1.339680453111312        0.5749189255018291    
     1.351749646382586        0.5647343567929262    
     1.363818839653859        0.5547112557114700    
     1.375888032925132        0.5448484295996806    
     1.387957226196405        0.5351445932650060    
     1.400026419467678        0.5255983774846447    
     1.412095612738951        0.5162083376231407    
     1.424164806010224        0.5069729615312933    
     1.436233999281497        0.4978906766029371    
     1.448303192552770        0.4889598561702577    
     1.460372385824043        0.4801788255811774    
     1.472441579095316        0.4715458680897290    
     1.484510772366589        0.4630592301490665    
     1.496579965637862        0.4547171263619414    
     1.508649158909136        0.4465177440424587    
     1.520718352180409        0.4384592475056740    
     1.532787545451682        0.4305397820316385    
     1.544856738722955        0.4227574775229615    
     1.556925931994228        0.4151104519076371    
     1.568995125265501        0.4075968142849674    
     1.581064318536774        0.4002146678332584    
     1.593133511808047        0.3929621124962790    
     1.605202705079320        0.3858372474621621    
     1.617271898350593        0.3788381734481726    
     1.629341091621866        0.3719629948033610    
     1.641410284893140        0.3652098214439250    
     1.653479478164413        0.3585767706255540    
     1.665548671435686        0.3520619685593176    
     1.677617864706959        0.3456635519133726    
     1.689687057978232        0.3393796691731521    
     1.701756251249505        0.3332084818765102    
     1.713825444520778        0.3271481657326398    
     1.725894637792051        0.3211969116188942    
     1.737963831063324        0.3153529265099554    
     1.750033024334597        0.3096144343312159    
     1.762102217605870        0.3039796766944790    
     1.774171410877143        0.2984469135641133    
     1.786240604148416        0.2930144238284726    
     1.798309797419690        0.2876805058167844    
     1.810378990690963        0.2824434777719735    
     1.822448183962236        0.2773016782485164    
     1.834517377233509        0.2722534664531015    
     1.846586570504782        0.2672972225359025    
     1.858655763776055        0.2624313478286122    
     1.870724957047328        0.2576542650433944    
     1.882794150318601        0.2529644184334495    
     1.894863343589874        0.2483602739113599    
     1.906932536861147        0.2438403191321747    
     1.919001730132420        0.2394030635459486    
     1.931070923403694        0.2350470384193747    
     1.943140116674967        0.2307707968298920    
     1.955209309946240        0.2265729136342956    
     1.967278503217513        0.2224519854140060    
     1.979347696488786        0.2184066303987618    
     1.991416889760059        0.2144354883706743    
     2.003486083031332        0.2105372205502012    
     2.015555276302605        0.2067105094656460    
     2.027624469573878        0.2029540588076970    
     2.039693662845151        0.1992665932702482    
     2.051762856116425        0.1956468583789300    
     2.063832049387698        0.1920936203083793    
     2.075901242658971        0.1886056656895259    
     2.087970435930244        0.1851818014077580    
     2.100039629201517        0.1818208543931043    
     2.112108822472790        0.1785216714031605    
     2.124178015744063        0.1752831187997718    
     2.136247209015336        0.1721040823200738    
     2.148316402286609        0.1689834668427875    
     2.160385595557882        0.1659201961502794    
     2.172454788829155        0.1629132126871586    
     2.184523982100428        0.1599614773158811    
     2.196593175371701        0.1570639690699359    
     2.208662368642974        0.1542196849051647    
     2.220731561914247        0.1514276394495535    
     2.232800755185520        0.1486868647520709    
     2.244869948456794        0.1459964100307933    
     2.256939141728067        0.1433553414208260    
     2.269008334999340        0.1407627417222338    
     2.281077528270613        0.1382177101483435    
     2.293146721541886        0.1357193620747286    
     2.305215914813159        0.1332668287890361    
     2.317285108084432        0.1308592572420220    
     2.329354301355705        0.1284958097998695    
     2.341423494626978        0.1261756639981217    
     2.353492687898251        0.1238980122972978    
     2.365561881169524        0.1216620618403982    
     2.377631074440798        0.1194670342124800    
     2.389700267712071        0.1173121652023349    
     2.401769460983344        0.1151967045665066    
     2.413838654254617        0.1131199157956488    
     2.425907847525890        0.1110810758833615    
     2.437977040797163        0.1090794750976165    
     2.450046234068436        0.1071144167547546    
     2.462115427339709        0.1051852169962264    
     2.474184620610982        0.1032912045680344    
     2.486253813882255        0.1014317206029635    
     2.498323007153529        0.9960611840566488E-01
     2.510392200424802        0.9781376324054109E-01
     2.522461393696075        0.9605403212255617E-01
     2.534530586967348        0.9432631361090674E-01
     2.546599780238621        0.9263000760559842E-01
     2.558668973509894        0.9096452514696683E-01
     2.570738166781167        0.8932928821806960E-01
     2.582807360052440        0.8772372955003387E-01
     2.594876553323713        0.8614729243029050E-01
     2.606945746594986        0.8459943051370562E-01
     2.619014939866259        0.8307960763662882E-01
     2.631084133137533        0.8158729763379202E-01
     2.643153326408806        0.8012198415806847E-01
     2.655222519680079        0.7868316050309374E-01
     2.667291712951352        0.7727032942868102E-01
     2.679360906222625        0.7588300298903673E-01
     2.691430099493898        0.7452070236376432E-01
     2.703499292765171        0.7318295769158366E-01
     2.715568486036444        0.7186930790679713E-01
     2.727637679307717        0.7057930057842601E-01
     2.739706872578990        0.6931249175200543E-01
     2.751776065850263        0.6806844579402418E-01
     2.763845259121537        0.6684673523894742E-01
     2.775914452392810        0.6564694063880611E-01
     2.787983645664082        0.6446865041533423E-01
     2.800052838935355        0.6331146071459397E-01
     2.812122032206628        0.6217497526407137E-01
     2.824191225477902        0.6105880523221873E-01
     2.836260418749175        0.5996256909038767E-01
     2.848329612020448        0.5888589247713386E-01
     2.860398805291721        0.5782840806486533E-01
     2.872467998562994        0.5678975542878498E-01
     2.884537191834267        0.5576958091810347E-01
     2.896606385105540        0.5476753752949579E-01
     2.908675578376813        0.5378328478275281E-01
     2.920744771648086        0.5281648859860497E-01
     2.932813964919359        0.5186682117868867E-01
     2.944883158190633        0.5093396088761216E-01
     2.956952351461906        0.5001759213709583E-01
     2.969021544733179        0.4911740527215706E-01
     2.981090738004452        0.4823309645930084E-01
     2.993159931275725        0.4736436757668934E-01
     3.005229124546998        0.4651092610626169E-01
     3.017298317818271        0.4567248502776708E-01
     3.029367511089544        0.4484876271468503E-01
     3.041436704360817        0.4403948283200339E-01
     3.053505897632090        0.4324437423582121E-01
     3.065575090903363        0.4246317087474968E-01
     3.077644284174637        0.4169561169308187E-01
     3.089713477445910        0.4094144053570169E-01
     3.101782670717183        0.4020040605470449E-01
     3.113851863988456        0.3947226161770222E-01
     3.125921057259729        0.3875676521779112E-01
     3.137990250531002        0.3805367938510894E-01
     3.150059443802275        0.3736277110007839E-01
     3.162128637073548        0.3668381170814797E-01
     3.174197830344821        0.3601657683619709E-01
     3.186267023616094        0.3536084630991783E-01
     3.198336216887367        0.3471640407401384E-01
     3.210405410158641        0.3408303811303560E-01
     3.222474603429914        0.3346054037069347E-01
     3.234543796701187        0.3284870667870755E-01
     3.246612989972460        0.3224733667948933E-01
     3.258682183243733        0.3165623374905470E-01
     3.270751376515006        0.3107520493106401E-01
     3.282820569786279        0.3050406086255095E-01
     3.294889763057552        0.2994261570401506E-01
     3.306958956328825        0.2939068707989024E-01
     3.319028149600098        0.2884809600007717E-01
     3.331097342871371        0.2831466680414015E-01
     3.343166536142645        0.2779022712017528E-01
     3.355235729413918        0.2727460778317189E-01
     3.367304922685191        0.2676764280559379E-01
     3.379374115956464        0.2626916933346251E-01
     3.391443309227737        0.2577902761415439E-01
     3.403512502499010        0.2529706096686227E-01
     3.415581695770283        0.2482311576736487E-01
     3.427650889041556        0.2435704141659118E-01
     3.439720082312829        0.2389869035919600E-01
     3.451789275584102        0.2344791806262794E-01
     3.463858468855375        0.2300458302181085E-01
     3.475927662126648        0.2256854674526352E-01
     3.487996855397921        0.2213967378353560E-01
     3.500066048669194        0.2171783171471267E-01
     3.512135241940467        0.2130289114194629E-01
     3.524204435211741        0.2089472570162156E-01
     3.536273628483014        0.2049321205227905E-01
     3.548342821754287        0.2009822986615883E-01
     3.560412015025560        0.1970966181899624E-01
     3.572481208296833        0.1932739356651383E-01
     3.584550401568106        0.1895131372467678E-01
     3.596619594839379        0.1858131383951619E-01
     3.608688788110652        0.1821728835992000E-01
     3.620757981381925        0.1785913458764285E-01
     3.632827174653198        0.1750675263972184E-01
     3.644896367924471        0.1716004540600113E-01
     3.656965561195745        0.1681891848494602E-01
     3.669034754467018        0.1648328013356507E-01
     3.681103947738291        0.1615304120456247E-01
     3.693173141009564        0.1582811508776682E-01
     3.705242334280837        0.1550841763514151E-01
     3.717311527552110        0.1519386709660917E-01
     3.729380720823383        0.1488438404715446E-01
     3.741449914094656        0.1457989131644899E-01
     3.753519107365929        0.1428031391013520E-01
     3.765588300637202        0.1398557893723672E-01
     3.777657493908475        0.1369561553349848E-01
     3.789726687179749        0.1341035478592080E-01
     3.801795880451022        0.1312972965534469E-01
     3.813865073722295        0.1285367490137894E-01
     3.825934266993568        0.1258212700702997E-01
     3.838003460264841        0.1231502410380692E-01
     3.850072653536114        0.1205230589903279E-01
     3.862141846807387        0.1179391360316650E-01
     3.874211040078660        0.1153978985932913E-01
     3.886280233349933        0.1128987867303791E-01
     3.898349426621206        0.1104412534644375E-01
     3.910418619892480        0.1080247641144978E-01
     3.922487813163753        0.1056487956641393E-01
     3.934557006435026        0.1033128361304089E-01
     3.946626199706299        0.1010163839877907E-01
     3.958695392977572        0.9875894757750523E-02
     3.970764586248845        0.9654004455823715E-02
     3.982833779520118        0.9435920135967509E-02
     3.994902972791391        0.9221595269278619E-02
     4.006972166062664        0.9010984104638336E-02
     4.019041359333937        0.8804041622528031E-02
     4.031110552605210        0.8600723489255682E-02
     4.043179745876484        0.8400986016513455E-02
     4.055248939147757        0.8204786119887390E-02
     4.067318132419030        0.8012081281209393E-02
     4.079387325690303        0.7822829511456996E-02
     4.091456518961576        0.7636989318344575E-02
     4.103525712232849        0.7454519673286729E-02
     4.115594905504122        0.7275379981703351E-02
     4.127664098775395        0.7099530054002470E-02
     4.139733292046668        0.6926930080463850E-02
     4.151802485317941        0.6757540605933041E-02
     4.163871678589214        0.6591322507135478E-02
     4.175940871860488        0.6428236971622925E-02
     4.188010065131761        0.6268245477681306E-02
     4.200079258403034        0.6111309777257612E-02
     4.212148451674307        0.5957391878860303E-02
     4.224217644945580        0.5806454032733496E-02
     4.236286838216853        0.5658458716765107E-02
     4.248356031488126        0.5513368624793587E-02
     4.260425224759399        0.5371146655094785E-02
     4.272494418030672        0.5231755900644957E-02
     4.284563611301945        0.5095159640104157E-02
     4.296632804573219        0.4961321330570391E-02
     4.308701997844492        0.4830204600714288E-02
     4.320771191115765        0.4701773245189957E-02
     4.332840384387037        0.4575991219950898E-02
     4.344909577658310        0.4452822638273451E-02
     4.356978770929583        0.4332231767967970E-02
     4.369047964200856        0.4214183028995550E-02
     4.381117157472129        0.4098640991999946E-02
     4.393186350743402        0.3985570377431693E-02
     4.405255544014675        0.3874936055420963E-02
     4.417324737285949        0.3766703046132313E-02
     4.429393930557222        0.3660836520718703E-02
     4.441463123828495        0.3557301802767463E-02
     4.453532317099768        0.3456064370254468E-02
     4.465601510371041        0.3357089857844292E-02
     4.477670703642314        0.3260344059669751E-02
     4.489739896913587        0.3165792932407149E-02
     4.501809090184860        0.3073402598798701E-02
     4.513878283456133        0.2983139351235869E-02
     4.525947476727406        0.2894969655823985E-02
     4.538016669998679        0.2808860156579333E-02
     4.550085863269953        0.2724777679814615E-02
     4.562155056541226        0.2642689238871119E-02
     4.574224249812499        0.2562562038646756E-02
     4.586293443083772        0.2484363480597352E-02
     4.598362636355045        0.2408061167677581E-02
     4.610431829626318        0.2333622909353403E-02
     4.622501022897591        0.2261016726878561E-02
     4.634570216168864        0.2190210858174564E-02
     4.646639409440137        0.2121173763168463E-02
     4.658708602711410        0.2053874128923215E-02
     4.670777795982684        0.1988280874751984E-02
     4.682846989253957        0.1924363157525490E-02
     4.694916182525230        0.1862090376452811E-02
     4.706985375796503        0.1801432178296306E-02
     4.719054569067776        0.1742358462274501E-02
     4.731123762339049        0.1684839384885227E-02
     4.743192955610322        0.1628845364864831E-02
     4.755262148881595        0.1574347087538261E-02
     4.767331342152868        0.1521315509576472E-02
     4.779400535424141        0.1469721863321332E-02
     4.791469728695414        0.1419537661293931E-02
     4.803538921966688        0.1370734700028955E-02
     4.815608115237961        0.1323285064275647E-02
     4.827677308509234        0.1277161130813048E-02
     4.839746501780507        0.1232335572098360E-02
     4.851815695051780        0.1188781360021278E-02
     4.863884888323053        0.1146471768952359E-02
     4.875954081594326        0.1105380379140089E-02
     4.888023274865599        0.1065481079697131E-02
     4.900092468136872        0.1026748071402851E-02
     4.912161661408145        0.9891558695909724E-03
     4.924230854679418        0.9526793063298557E-03
     4.936300047950692        0.9172935329276185E-03
     4.948369241221965        0.8829740220239556E-03
     4.960438434493238        0.8496965695413398E-03
     4.972507627764511        0.8174372964111409E-03
     4.984576821035784        0.7861726503523450E-03
     4.996646014307057        0.7558794069640547E-03
     5.008715207578330        0.7265346711561315E-03
     5.020784400849603        0.6981158781447476E-03
     5.032853594120876        0.6706007942758709E-03
     5.044922787392149        0.6439675179038825E-03
     5.056991980663422        0.6181944796052965E-03
     5.069061173934696        0.5932604427170645E-03
     5.081130367205969        0.5691445034627336E-03
     5.093199560477242        0.5458260909145645E-03
     5.105268753748515        0.5232849670151911E-03
     5.117337947019788        0.5015012259708834E-03
     5.129407140291061        0.4804552939502362E-03
     5.141476333562334        0.4601279284042762E-03
     5.153545526833607        0.4405002172345760E-03
     5.165614720104880        0.4215535780250836E-03
     5.177683913376153        0.4032697566951282E-03
     5.189753106647427        0.3856308264323148E-03
     5.201822299918700        0.3686191862885805E-03
     5.213891493189973        0.3522175596776635E-03
     5.225960686461246        0.3364089927054019E-03
     5.238029879732519        0.3211768525670233E-03
     5.250099073003792        0.3065048254086549E-03
     5.262168266275065        0.2923769144893647E-03
     5.274237459546338        0.2787774380211740E-03
     5.286306652817611        0.2656910268942882E-03
     5.298375846088884        0.2531026225171003E-03
     5.310445039360157        0.2409974740943172E-03
     5.322514232631431        0.2293611362578907E-03
     5.334583425902704        0.2181794663853913E-03
     5.346652619173977        0.2074386218662494E-03
     5.358721812445250        0.1971250572249841E-03
     5.370791005716523        0.1872255214532241E-03
     5.382860198987796        0.1777270546370807E-03
     5.394929392259069        0.1686169851442215E-03
     5.406998585530342        0.1598829264225209E-03
     5.419067778801615        0.1515127736661363E-03
     5.431136972072888        0.1434947010532687E-03
     5.443206165344161        0.1358171576153795E-03
     5.455275358615435        0.1284688643307391E-03
     5.467344551886708        0.1214388105483515E-03
     5.479413745157981        0.1147162504709281E-03
     5.491482938429254        0.1082906992540636E-03
     5.503552131700527        0.1021519308194668E-03
     5.515621324971800        0.9628997194392019E-04
     5.527690518243073        0.9069510000751877E-04
     5.539759711514346        0.8535783889416071E-04
     5.551828904785619        0.8026895519393745E-04
     5.563898098056892        0.7541945322121488E-04
     5.575967291328165        0.7080057618079196E-04
     5.588036484599438        0.6640379417651887E-04
     5.600105677870711        0.6222080563055203E-04
     5.612174871141984        0.5824353199958780E-04
     5.624244064413257        0.5446410741971888E-04
     5.636313257684530        0.5087490098075544E-04
     5.648382450955803        0.4746847295270106E-04
     5.660451644227076        0.4423759551402901E-04
     5.672520837498349        0.4117524287800900E-04
     5.684590030769622        0.3827458705118527E-04
     5.696659224040896        0.3552894254686796E-04
     5.708728417312169        0.3293197623101278E-04
     5.720797610583442        0.3047737744290698E-04
     5.732866803854715        0.2815906049905065E-04
     5.744935997125988        0.2597111266734622E-04
     5.757005190397261        0.2390778995388219E-04
     5.769074383668534        0.2196357912316100E-04
     5.781143576939807        0.2013291357480482E-04
     5.793212770211080        0.1841059452462897E-04
     5.805281963482353        0.1679151201859200E-04
     5.817351156753626        0.1527070054961558E-04
     5.829420350024900        0.1384332950368496E-04
     5.841489543296173        0.1250449535109574E-04
     5.853558736567446        0.1125002537218206E-04
     5.865627929838719        0.1007523465907670E-04
     5.877697123109992        0.8975679396159881E-05
     5.889766316381265        0.7946955077246041E-05
     5.901835509652538        0.6984671438869092E-05
     5.913904702923811        0.6085149295700319E-05
     5.925973896195084        0.5242436241975761E-05
     5.938043089466357        0.4452579302458036E-05
     5.950112282737630        0.3710944176420333E-05
     5.962181476008904        0.3012802772164076E-05
     5.974250669280177        0.2353313738763919E-05
     5.986319862551450        0.1722744401422546E-05
     5.998389055822723        0.1125103251732814E-05
     6.010458249093996        0.5523694449911448E-06
     6.022527442365269         0.000000000000000    
  0  2  2  0  0.000000   #orbital l, n, z, is_polarized, population
 500    0.5845086630452420E-02     2.916698228595757     # npts, delta, cutoff
     0.000000000000000         1.377793504497560    
    0.5845086630452420E-02     1.377824740250925    
    0.1169017326090484E-01     1.377936861744226    
    0.1753525989135726E-01     1.378123586640953    
    0.2338034652180968E-01     1.378384693453226    
    0.2922543315226210E-01     1.378719873388712    
    0.3507051978271452E-01     1.379128729727714    
    0.4091560641316694E-01     1.379610777807145    
    0.4676069304361936E-01     1.380165445100361    
    0.5260577967407178E-01     1.380792071338353    
    0.5845086630452419E-01     1.381489908663826    
    0.6429595293497661E-01     1.382258121818263    
    0.7014103956542904E-01     1.383095788364496    
    0.7598612619588145E-01     1.384001898948138    
    0.8183121282633388E-01     1.384975357601674    
    0.8767629945678629E-01     1.386014982095320    
    0.9352138608723871E-01     1.387119504338810    
    0.9936647271769114E-01     1.388287570838473    