<preamble>

<basis_specs>
===============================================================================
Ti                   Z=  22    Mass=  47.880        Charge= 0.14947    
Lmxo=2 Lmxkb= 2    BasisType=split      Semic=T
L=0  Nsemic=1  Cnfigmx=4
          n=1  nzeta=1  polorb=0  (3s)
            splnorm:   0.15000    
               vcte:    89.205    
               rinn:    3.2894    
               qcoe:    0.0000    
               qyuk:    0.0000    
               qwid:   0.10000E-01
                rcs:    5.8063    
            lambdas:    1.0000    
          n=2  nzeta=2  polorb=0  (4s)
            splnorm:   0.15000    
               vcte:    86.380    
               rinn:    4.8815    
               qcoe:    0.0000    
               qyuk:    0.0000    
               qwid:   0.10000E-01
                rcs:    6.7459      4.4103    
            lambdas:    1.0000      1.0000    
L=1  Nsemic=1  Cnfigmx=4
          n=1  nzeta=1  polorb=0  (3p)
            splnorm:   0.15000    
               vcte:    101.02    
               rinn:    2.7872    
               qcoe:    0.0000    
               qyuk:    0.0000    
               qwid:   0.10000E-01
                rcs:    5.6629    
            lambdas:    1.0000    
          n=2  nzeta=1  polorb=0  (4p)
            splnorm:   0.15000    
               vcte:    14.474    
               rinn:    1.0947    
               qcoe:    0.0000    
               qyuk:    0.0000    
               qwid:   0.10000E-01
                rcs:    5.2537    
            lambdas:    1.0000    
L=2  Nsemic=0  Cnfigmx=3
          n=1  nzeta=2  polorb=0  (3d)
            splnorm:   0.15000    
               vcte:    47.974    
               rinn:    5.2690    
               qcoe:    0.0000    
               qyuk:    0.0000    
               qwid:   0.10000E-01
                rcs:    6.2585      2.8833    
            lambdas:    1.0000      1.0000    
-------------------------------------------------------------------------------
L=0  Nkbl=2  erefs: 0.17977+309 0.17977+309
L=1  Nkbl=2  erefs: 0.17977+309 0.17977+309
L=2  Nkbl=1  erefs: 0.17977+309
===============================================================================
</basis_specs>

<pseudopotential_header>
 Ti ps nrl pcec
 ONCVPSP-3.2018-03-01Hamann's oncvpsp                        
 3s 2.00  r= 1.36/3p 6.00  r= 1.31/3d 2.00  r= 1.66/                   
</pseudopotential_header>
</preamble>
Ti                            # Symbol
Ti                            # Label
   22                         # Atomic number
     12.0000000000                             # Valence charge
     47.8800000000        # Mass 
     176.418261186        # Self energy 
   2   7                      # Lmax for basis, no. of nl orbitals 
   2   6                      # Lmax for projectors, no. of nl KB projectors
# PAOs:__________________________
  0  3  1  0  2.000000   #orbital l, n, z, is_polarized, population
 500    0.1163580899014869E-01     5.806268686084199     # npts, delta, cutoff
     0.000000000000000        0.9556380507147502    
    0.1163580899014869E-01    0.9560443697240060    
    0.2327161798029739E-01    0.9572699050564083    
    0.3490742697044608E-01    0.9593076501353823    
    0.4654323596059478E-01    0.9621504009797595    
    0.5817904495074348E-01    0.9657881062777072    
    0.6981485394089217E-01    0.9702079014284086    
    0.8145066293104086E-01    0.9753941522727634    
    0.9308647192118956E-01    0.9813285083942378    
    0.1047222809113383        0.9879899658860298    
    0.1163580899014870        0.9953549394608607    
    0.1279938988916356         1.003397343754565    
    0.1396297078817843         1.012088683646351    
    0.1512655168719330         1.021398153387481    
    0.1629013258620817         1.031292744296332    
    0.1745371348522304         1.041737360741203    
    0.1861729438423791         1.052694944093249    
    0.1978087528325278         1.064126604290590    
    0.2094445618226765         1.075991758611450    
    0.2210803708128252         1.088248277209383    
    0.2327161798029739         1.100852634917895    
    0.2443519887931226         1.113760068785506    
    0.2559877977832713         1.126924740756235    
    0.2676236067734200         1.140299904865187    
    0.2792594157635687         1.153838078275307    
    0.2908952247537174         1.167491215439897    
    0.3025310337438661         1.181210884637209    
    0.3141668427340147         1.194948446088836    
    0.3258026517241635         1.208655230843689    
    0.3374384607143122         1.222282719584563    
    0.3490742697044609         1.235782720495389    
    0.3607100786946095         1.249107545314937    
    0.3723458876847582         1.262210182697151    
    0.3839816966749069         1.275044468000176    
    0.3956175056650556         1.287565248635603    
    0.4072533146552043         1.299728544126457    
    0.4188891236453530         1.311491700047521    
    0.4305249326355017         1.322813535053871    
    0.4421607416256504         1.333654480243533    
    0.4537965506157991         1.343976710146929    
    0.4654323596059478         1.353744264689303    
    0.4770681685960965         1.362923161531842    
    0.4887039775862452         1.371481498262183    
    0.5003397865763939         1.379389543974898    
    0.5119755955665426         1.386619819856599    
    0.5236114045566913         1.393147168467865    
    0.5352472135468400         1.398948811494562    
    0.5468830225369886         1.404004395823366    
    0.5585188315271373         1.408296027879824    
    0.5701546405172860         1.411808296250850    
    0.5817904495074347         1.414528282696665    
    0.5934262584975835         1.416445561738480    
    0.6050620674877322         1.417552189086840    
    0.6166978764778809         1.417842679250812    
    0.6283336854680295         1.417313972738687    
    0.6399694944581782         1.415965393326187    
    0.6516053034483269         1.413798595927410    
    0.6632411124384756         1.410817505656121    
    0.6748769214286243         1.407028248710432    
    0.6865127304187730         1.402439075751402    
    0.6981485394089217         1.397060278476001    
    0.7097843483990703         1.390904100106627    
    0.7214201573892191         1.383984640533135    
    0.7330559663793678         1.376317756849216    
    0.7446917753695165         1.367920960096163    
    0.7563275843596652         1.358813308300591    
    0.7679633933498139         1.349015296504395    
    0.7795992023399626         1.338548785539394    
    0.7912350113301112         1.327436889784394    
    0.8028708203202599         1.315703629038772    
    0.8145066293104086         1.303374156823227    
    0.8261424383005573         1.290474489659625    
    0.8377782472907060         1.277031416879122    
    0.8494140562808548         1.263072390200711    
    0.8610498652710035         1.248625417563263    
    0.8726856742611521         1.233718959276631    
    0.8843214832513008         1.218381826925734    
    0.8959572922414495         1.202643085292857    
    0.9075931012315982         1.186531957517518    
    0.9192289102217469         1.170077733669874    
    0.9308647192118956         1.153309682872727    
    0.9425005282020443         1.136256969069741    
    0.9541363371921929         1.118948570503614    
    0.9657721461823416         1.101413202937911    
    0.9774079551724904         1.083679246630349    
    0.9890437641626391         1.065774677043632    
     1.000679573152788         1.047726999262316    
     1.012315382142936         1.029563186070964    
     1.023951191133085         1.011309619639204    
     1.035587000123234        0.9929920367537586    
     1.047222809113383        0.9746354775352886    
     1.058858618103531        0.9562642375787235    
     1.070494427093680        0.9379018234593375    
     1.082130236083829        0.9195709115526280    
     1.093766045073977        0.9012933101237823    
     1.105401854064126        0.8830899246512931    
     1.117037663054275        0.8649807263589991    
     1.128673472044423        0.8469847239409004    
     1.140309281034572        0.8291199384729998    
     1.151945090024721        0.8114033815154584    
     1.163580899014869        0.7938510364166419    
     1.175216708005018        0.7764778428373417    
     1.186852516995167        0.7592976845188082    
     1.198488325985316        0.7423233803206075    
     1.210124134975464        0.7255666785558648    
     1.221759943965613        0.7090382546485272    
     1.233395752955762        0.6927477121363830    
     1.245031561945910        0.6767035870329131    
     1.256667370936059        0.6609133555582161    
     1.268303179926208        0.6453834452017383    
     1.279938988916356        0.6301192492015072    
     1.291574797906505        0.6151251443006359    
     1.303210606896654        0.6004045118734237    
     1.314846415886803        0.5859597613382246    
     1.326482224876951        0.5717923588510119    
     1.338118033867100        0.5579028558407408    
     1.349753842857249        0.5442909279465319    
     1.361389651847397        0.5309553892669846    
     1.373025460837546        0.5178943294165844    
     1.384661269827695        0.5051053972128968    
     1.396297078817843        0.4925859902024435    
     1.407932887807992        0.4803333492084961    
     1.419568696798141        0.4683445079341870    
     1.431204505788289        0.4566163406707382    
     1.442840314778438        0.4451455779310753    
     1.454476123768587        0.4339288218067590    
     1.466111932758736        0.4229625621030674    
     1.477747741748884        0.4122431907850368    
     1.489383550739033        0.4017670155216387    
     1.501019359729182        0.3915302722068035    
     1.512655168719330        0.3815291365740966    
     1.524290977709479        0.3717597349565063    
     1.535926786699628        0.3622181542392846    
     1.547562595689776        0.3529004510586420    
     1.559198404679925        0.3438026602970349    
     1.570834213670074        0.3349208029175580    
     1.582470022660222        0.3262508931728005    
     1.594105831650371        0.3177889452459297    
     1.605741640640520        0.3095309793703943    
     1.617377449630669        0.3014730273847842    
     1.629013258620817        0.2936111378462712    
     1.640649067610966        0.2859413806936338    
     1.652284876601115        0.2784598515332066    
     1.663920685591263        0.2711626756142396    
     1.675556494581412        0.2640460113180849    
     1.687192303571561        0.2571060532825356    
     1.698828112561710        0.2503390352258780    
     1.710463921551858        0.2437412324906864    
     1.722099730542007        0.2373089644390916    
     1.733735539532156        0.2310385965248781    
     1.745371348522304        0.2249265420894583    
     1.757007157512453        0.2189692639594306    
     1.768642966502602        0.2131632758080982    
     1.780278775492750        0.2075051433508331    
     1.791914584482899        0.2019914853840989    
     1.803550393473048        0.1966189746356681    
     1.815186202463196        0.1913843384616589    
     1.826822011453345        0.1862843594094983    
     1.838457820443494        0.1813158756481026    
     1.850093629433643        0.1764757812753322    
     1.861729438423791        0.1717610265141453    
     1.873365247413940        0.1671686178055365    
     1.885001056404089        0.1626956178061845    
     1.896636865394237        0.1583391452989937    
     1.908272674384386        0.1540963750234366    
     1.919908483374535        0.1499645374326873    
     1.931544292364683        0.1459409183841336    
     1.943180101354832        0.1420228587689747    
     1.954815910344981        0.1382077540870284    
     1.966451719335129        0.1344930539716639    
     1.978087528325278        0.1308762616703131    
     1.989723337315427        0.1273549334848283    
     2.001359146305576        0.1239266781765218    
     2.012994955295724        0.1205891563395721    
     2.024630764285873        0.1173400797470565    
     2.036266573276022        0.1141772106727488    
     2.047902382266170        0.1110983611924193    
     2.059538191256319        0.1081013924672084    
     2.071174000246468        0.1051842140124618    
     2.082809809236617        0.1023447829541633    
     2.094445618226765        0.9958110327518779E-01
     2.106081427216914        0.9689122505415872E-01
     2.117717236207063        0.9427324369803296E-01
     2.129353045197211        0.9172529917209891E-01
     2.140988854187360        0.8924557522602815E-01
     2.152624663177508        0.8683229861737345E-01
     2.164260472167657        0.8448373833764126E-01
     2.175896281157806        0.8219820483850863E-01
     2.187532090147954        0.7997404926156421E-01
     2.199167899138103        0.7780966266906457E-01
     2.210803708128252        0.7570347528486078E-01
     2.222439517118401        0.7365395573369277E-01
     2.234075326108549        0.7165961027512811E-01
     2.245711135098698        0.6971898205555138E-01
     2.257346944088847        0.6783065036606159E-01
     2.268982753078995        0.6599322990542247E-01
     2.280618562069144        0.6420537004693178E-01
     2.292254371059293        0.6246575412348829E-01
     2.303890180049442        0.6077309871110254E-01
     2.315525989039590        0.5912615290386983E-01
     2.327161798029739        0.5752369761512598E-01
     2.338797607019888        0.5596454487831024E-01
     2.350433416010036        0.5444753716508168E-01
     2.362069225000185        0.5297154670202335E-01
     2.373705033990334        0.5153547480461713E-01
     2.385340842980483        0.5013825121347100E-01
     2.396976651970631        0.4877883344299826E-01
     2.408612460960780        0.4745620613179311E-01
     2.420248269950929        0.4616938040850761E-01
     2.431884078941077        0.4491739326840916E-01
     2.443519887931226        0.4369930695608632E-01
     2.455155696921375        0.4251420835995676E-01
     2.466791505911524        0.4136120841494435E-01
     2.478427314901672        0.4023944151679141E-01
     2.490063123891820        0.3914806494619558E-01
     2.501698932881969        0.3808625830326803E-01
     2.513334741872118        0.3705322295257019E-01
     2.524970550862267        0.3604818147864722E-01
     2.536606359852415        0.3507037715225800E-01
     2.548242168842564        0.3411907340723844E-01
     2.559877977832713        0.3319355332811522E-01
     2.571513786822861        0.3229311914837421E-01
     2.583149595813010        0.3141709175940705E-01
     2.594785404803159        0.3056481023020623E-01
     2.606421213793308        0.2973563133749231E-01
     2.618057022783456        0.2892892910656969E-01
     2.629692831773605        0.2814409436250376E-01
     2.641328640763754        0.2738053429162341E-01
     2.652964449753902        0.2663767201343814E-01
     2.664600258744051        0.2591494616251870E-01
     2.676236067734200        0.2521181048035989E-01
     2.687871876724349        0.2452773341726429E-01
     2.699507685714497        0.2386219774375149E-01
     2.711143494704646        0.2321470017151878E-01
     2.722779303694795        0.2258475098393831E-01
     2.734415112684943        0.2197187367559803E-01
     2.746050921675092        0.2137560460090243E-01
     2.757686730665241        0.2079549263167137E-01
     2.769322539655390        0.2023109882327756E-01
     2.780958348645538        0.1968199608931654E-01
     2.792594157635687        0.1914776888471223E-01
     2.804229966625836        0.1862801289684782E-01
     2.815865775615984        0.1812233474468753E-01
     2.827501584606133        0.1763035168576960E-01
     2.839137393596281        0.1715169133071383E-01
     2.850773202586430        0.1668599136518180E-01
     2.862409011576579        0.1623289927915537E-01
     2.874044820566727        0.1579207210323100E-01
     2.885680629556876        0.1536317615184387E-01
     2.897316438547025        0.1494588677327790E-01
     2.908952247537174        0.1453988810621116E-01
     2.920588056527322        0.1414487284269045E-01
     2.932223865517471        0.1376054199738633E-01
     2.943859674507620        0.1338660468292421E-01
     2.955495483497768        0.1302277789117207E-01
     2.967131292487917        0.1266878628033097E-01
     2.978767101478066        0.1232436196766772E-01
     2.990402910468215        0.1198924432775953E-01
     3.002038719458363        0.1166317979609577E-01
     3.013674528448512        0.1134592167791143E-01
     3.025310337438661        0.1103722996211771E-01
     3.036946146428809        0.1073687114017559E-01
     3.048581955418958        0.1044461802981652E-01
     3.060217764409107        0.1016024960346085E-01
     3.071853573399256        0.9883550821229926E-02
     3.083489382389404        0.9614312468397107E-02
     3.095125191379553        0.9352330997208932E-02
     3.106761000369702        0.9097408372940550E-02
     3.118396809359850        0.8849351924042438E-02
     3.130032618349999        0.8607974196329485E-02
     3.141668427340148        0.8373092811080268E-02
     3.153304236330296        0.8144530326905678E-02
     3.164940045320445        0.7922114105356487E-02
     3.176575854310594        0.7705676180119449E-02
     3.188211663300742        0.7495053129741809E-02
     3.199847472290891        0.7290085953734926E-02
     3.211483281281040        0.7090619952041412E-02
     3.223119090271188        0.6896504607741147E-02
     3.234754899261337        0.6707593472868846E-02
     3.246390708251486        0.6523744057342692E-02
     3.258026517241635        0.6344817720857973E-02
     3.269662326231783        0.6170679567704550E-02
     3.281298135221932        0.6001198344378362E-02
     3.292933944212081        0.5836246340009592E-02
     3.304569753202229        0.5675699289304785E-02
     3.316205562192378        0.5519436278420435E-02
     3.327841371182527        0.5367339653052890E-02
     3.339477180172675        0.5219294929422033E-02
     3.351112989162824        0.5075190705873770E-02
     3.362748798152973        0.4934918580960396E-02
     3.374384607143122        0.4798373070642674E-02
     3.386020416133270        0.4665451522481219E-02
     3.397656225123419        0.4536054047136650E-02
     3.409292034113568        0.4410083436892981E-02
     3.420927843103716        0.4287445091869623E-02
     3.432563652093865        0.4168046952430390E-02
     3.444199461084014        0.4051799422230594E-02
     3.455835270074163        0.3938615305768323E-02
     3.467471079064311        0.3828409739018570E-02
     3.479106888054460        0.3721100150332652E-02
     3.490742697044608        0.3616606163379543E-02
     3.502378506034757        0.3514849570024730E-02
     3.514014315024906        0.3415754279502723E-02
     3.525650124015054        0.3319246270231852E-02
     3.537285933005203        0.3225253554083787E-02
     3.548921741995352        0.3133706148249774E-02
     3.560557550985501        0.3044536015456632E-02
     3.572193359975649        0.2957677085830002E-02
     3.583829168965798        0.2873065203893682E-02
     3.595464977955947        0.2790638116798696E-02
     3.607100786946095        0.2710335431327646E-02
     3.618736595936244        0.2632098627799488E-02
     3.630372404926393        0.2555871015521922E-02
     3.642008213916542        0.2481597713202177E-02
     3.653644022906690        0.2409225624451651E-02
     3.665279831896839        0.2338703406461650E-02
     3.676915640886988        0.2269981440596088E-02
     3.688551449877136        0.2203011795438712E-02
     3.700187258867285        0.2137748202334420E-02
     3.711823067857434        0.2074145994487176E-02
     3.723458876847582        0.2012162078498045E-02
     3.735094685837731        0.1951754884411365E-02
     3.746730494827880        0.1892884330510399E-02
     3.758366303818029        0.1835511755316273E-02
     3.770002112808177        0.1779599880402033E-02
     3.781637921798326        0.1725112755232143E-02
     3.793273730788475        0.1672015711734208E-02
     3.804909539778623        0.1620275301272395E-02
     3.816545348768772        0.1569859249189212E-02
     3.828181157758920        0.1520736400604228E-02
     3.839816966749069        0.1472876670260407E-02
     3.851452775739218        0.1426250988458805E-02
     3.863088584729367        0.1380831252531836E-02
     3.874724393719515        0.1336590277423469E-02
     3.886360202709664        0.1293501746489508E-02
     3.897996011699813        0.1251540166806216E-02
     3.909631820689961        0.1210680822861746E-02
     3.921267629680110        0.1170899733902085E-02
     3.932903438670259        0.1132173609709963E-02
     3.944539247660408        0.1094479814527400E-02
     3.956175056650556        0.1057796326521081E-02
     3.967810865640705        0.1022101702609460E-02
     3.979446674630854        0.9873750413860315E-03
     3.991082483621002        0.9535959546155522E-03
     4.002718292611151        0.9207445341645675E-03
     4.014354101601300        0.8888013236655164E-03
     4.025989910591449        0.8577472919251499E-03
     4.037625719581597        0.8275638056337685E-03
     4.049261528571746        0.7982326093497956E-03
     4.060897337561895        0.7697358014037875E-03
     4.072533146552043        0.7420558146320903E-03
     4.084168955542192        0.7151753960609559E-03
     4.095804764532341        0.6890775925822576E-03
     4.107440573522489        0.6637457335955127E-03
     4.119076382512638        0.6391634174331528E-03
     4.130712191502787        0.6153144972166105E-03
     4.142348000492936        0.5921830710357404E-03
     4.153983809483084        0.5697534703613265E-03
     4.165619618473233        0.5480102509066086E-03
     4.177255427463382        0.5269381844584135E-03
     4.188891236453530        0.5065222508183453E-03
     4.200527045443679        0.4867476325468961E-03
     4.212162854433828        0.4675997086403991E-03
     4.223798663423977        0.4490640500070053E-03
     4.235434472414125        0.4311264150380497E-03
     4.247070281404274        0.4137727467983499E-03
     4.258706090394423        0.3969891699136295E-03
     4.270341899384571        0.3807619884357013E-03
     4.281977708374720        0.3650776841573046E-03
     4.293613517364869        0.3499229152835623E-03
     4.305249326355017        0.3352845157241329E-03
     4.316885135345165        0.3211494945328899E-03
     4.328520944335314        0.3075050357378833E-03
     4.340156753325463        0.2943384985909509E-03
     4.351792562315612        0.2816374177306521E-03
     4.363428371305760        0.2693895038562009E-03
     4.375064180295909        0.2575826444298024E-03
     4.386699989286058        0.2462049044728447E-03
     4.398335798276206        0.2352445278169822E-03
     4.409971607266355        0.2246899377070698E-03
     4.421607416256504        0.2145297381671564E-03
     4.433243225246652        0.2047527150613627E-03
     4.444879034236801        0.1953478371353284E-03
     4.456514843226950        0.1863042575026636E-03
     4.468150652217099        0.1776113141224209E-03
     4.479786461207247        0.1692585312068327E-03
     4.491422270197396        0.1612356200942683E-03
     4.503058079187545        0.1535324800383252E-03
     4.514693888177693        0.1461391994139362E-03
     4.526329697167842        0.1390460557269889E-03
     4.537965506157991        0.1322435166337896E-03
     4.549601315148140        0.1257222402957823E-03
     4.561237124138288        0.1194730756201715E-03
     4.572872933128437        0.1134870628821184E-03
     4.584508742118586        0.1077554330940665E-03
     4.596144551108734        0.1022696083938522E-03
     4.607780360098883        0.9702120161281498E-04
     4.619416169089032        0.9200201636823582E-04
     4.631051978079181        0.8720404588914257E-04
     4.642687787069329        0.8261947277337454E-04
     4.654323596059478        0.7824066811065137E-04
     4.665959405049627        0.7406019045171246E-04
     4.677595214039775        0.7007078515642326E-04
     4.689231023029924        0.6626538255940972E-04
     4.700866832020073        0.6263709700498520E-04
     4.712502641010222        0.5917922529093636E-04
     4.724138450000370        0.5588524498001382E-04
     4.735774258990519        0.5274881304341272E-04
     4.747410067980668        0.4976376347303345E-04
     4.759045876970816        0.4692410565448014E-04
     4.770681685960965        0.4422402223124641E-04
     4.782317494951114        0.4165786693748952E-04
     4.793953303941263        0.3922016226938037E-04
     4.805589112931411        0.3690559741299258E-04
     4.817224921921560        0.3470902533552319E-04
     4.828860730911709        0.3262546056639369E-04
     4.840496539901857        0.3065007652356399E-04
     4.852132348892006        0.2877820279143924E-04
     4.863768157882155        0.2700532261415078E-04
     4.875403966872303        0.2532706974020745E-04
     4.887039775862452        0.2373922581353579E-04
     4.898675584852601        0.2223771742648028E-04
     4.910311393842750        0.2081861314926375E-04
     4.921947202832898        0.1947812072398875E-04
     4.933583011823047        0.1821258381259860E-04
     4.945218820813196        0.1701847913385459E-04
     4.956854629803344        0.1589241338195128E-04
     4.968490438793492        0.1483112014422290E-04
     4.980126247783641        0.1383145692851678E-04
     4.991762056773790        0.1289040194145976E-04
     5.003397865763938        0.1200505110310988E-04
     5.015033674754087        0.1117261495342468E-04
     5.026669483744236        0.1039041558659203E-04
     5.038305292734385        0.9655883586836515E-05
     5.049941101724533        0.8966555032758117E-05
     5.061576910714682        0.8320068407149965E-05
     5.073212719704831        0.7714161644347206E-05
     5.084848528694979        0.7146669146275893E-05
     5.096484337685128        0.6615518829320965E-05
     5.108120146675277        0.6118729246467974E-05
     5.119755955665426        0.5654406652694978E-05
     5.131391764655574        0.5220742196261132E-05
     5.143027573645723        0.4816009105747443E-05
     5.154663382635872        0.4438559925657163E-05
     5.166299191626020        0.4086823762039816E-05
     5.177935000616169        0.3759303747859961E-05
     5.189570809606318        0.3454574181542181E-05
     5.201206618596466        0.3171278093300466E-05
     5.212842427586615        0.2908124671726047E-05
     5.224478236576764        0.2663886597071726E-05
     5.236114045566913        0.2437398355434626E-05
     5.247749854557061        0.2227552702518466E-05
     5.259385663547210        0.2033299050517337E-05
     5.271021472537359        0.1853641014553825E-05
     5.282657281527507        0.1687634175748710E-05
     5.294293090517656        0.1534383047940246E-05
     5.305928899507805        0.1393042599594116E-05
     5.317564708497954        0.1262810434668958E-05
     5.329200517488102        0.1142928482393355E-05
     5.340836326478251        0.1032680126649096E-05
     5.352472135468400        0.9313882579467932E-06
     5.364107944458548        0.8385138260666345E-06
     5.375743753448697        0.7532099604962670E-06
     5.387379562438846        0.6750293573072248E-06
     5.399015371428995        0.6034484363328806E-06
     5.410651180419143        0.5379767071995172E-06
     5.422286989409292        0.4773936029549827E-06
     5.433922798399441        0.4229045700587905E-06
     5.445558607389589        0.3733817363489421E-06
     5.457194416379738        0.3283489291737180E-06
     5.468830225369887        0.2873067853065186E-06
     5.480466034360036        0.2497455326840855E-06
     5.492101843350184        0.2174572644084285E-06
     5.503737652340333        0.1849242842094404E-06
     5.515373461330482        0.1539796464536951E-06
     5.527009270320630        0.1245187529780531E-06
     5.538645079310779        0.9664662059047461E-07
     5.550280888300928        0.7065906343040011E-07
     5.561916697291077        0.4524961768238010E-07
     5.573552506281225        0.2485714966585911E-07
     5.585188315271374        0.8312954390281338E-08
     5.596824124261523       -0.4006282823326878E-08
     5.608459933251671       -0.1191754811364639E-07
     5.620095742241820       -0.1548267420567201E-07
     5.631731551231968       -0.1222307196302690E-07
     5.643367360222117       -0.8899444103041892E-08
     5.655003169212265       -0.3867864495875506E-08
     5.666638978202414        0.1836327598204069E-08
     5.678274787192563        0.7135671763052016E-08
     5.689910596182711        0.1099088856808628E-07
     5.701546405172860        0.7502430712642180E-08
     5.713182214163009        0.6399414393815273E-08
     5.724818023153158        0.3480934537932847E-08
     5.736453832143306       -0.9892248853823330E-09
     5.748089641133455       -0.6426878266513394E-08
     5.759725450123604       -0.1188574832883961E-07
     5.771361259113752       -0.5827372109313244E-08
     5.782997068103901       -0.6013978873663613E-08
     5.794632877094050       -0.4333423356889526E-08
     5.806268686084199         0.000000000000000    
  0  4  1  0  2.000000   #orbital l, n, z, is_polarized, population
 500    0.1351891786758972E-01     6.745940015927270     # npts, delta, cutoff
     0.000000000000000        0.4334378854378435    
    0.1351891786758972E-01    0.4336286263899854    
    0.2703783573517944E-01    0.4342030800368745    
    0.4055675360276916E-01    0.4351558164928666    
    0.5407567147035888E-01    0.4364798376931868    