<preamble>

<basis_specs>
===============================================================================
Sr                   Z=  38    Mass=  87.620        Charge= 0.11309    
Lmxo=2 Lmxkb= 2    BasisType=split      Semic=T
L=0  Nsemic=1  Cnfigmx=5
          n=1  nzeta=1  polorb=0  (4s)
            splnorm:   0.15000    
               vcte:    62.333    
               rinn:    4.8198    
               qcoe:    0.0000    
               qyuk:    0.0000    
               qwid:   0.10000E-01
                rcs:    5.5423    
            lambdas:    1.0000    
          n=2  nzeta=2  polorb=0  (5s)
            splnorm:   0.15000    
               vcte:    181.62    
               rinn:    5.4992    
               qcoe:    0.0000    
               qyuk:    0.0000    
               qwid:   0.10000E-01
                rcs:    6.6022      5.2720    
            lambdas:    1.0000      1.0000    
L=1  Nsemic=1  Cnfigmx=5
          n=1  nzeta=1  polorb=0  (4p)
            splnorm:   0.15000    
               vcte:    43.703    
               rinn:    3.1067    
               qcoe:    0.0000    
               qyuk:    0.0000    
               qwid:   0.10000E-01
                rcs:    7.1164    
            lambdas:    1.0000    
          n=2  nzeta=1  polorb=0  (5p)
            splnorm:   0.15000    
               vcte:    137.01    
               rinn:    4.9874    
               qcoe:    0.0000    
               qyuk:    0.0000    
               qwid:   0.10000E-01
                rcs:    7.4813    
            lambdas:    1.0000    
L=2  Nsemic=0  Cnfigmx=4
          n=1  nzeta=1  polorb=0  (4d)
            splnorm:   0.15000    
               vcte:    82.751    
               rinn:    5.7793    
               qcoe:    0.0000    
               qyuk:    0.0000    
               qwid:   0.10000E-01
                rcs:    6.4392    
            lambdas:    1.0000    
-------------------------------------------------------------------------------
L=0  Nkbl=2  erefs: 0.17977+309 0.17977+309
L=1  Nkbl=2  erefs: 0.17977+309 0.17977+309
L=2  Nkbl=1  erefs: 0.17977+309
===============================================================================
</basis_specs>

<pseudopotential_header>
 Sr ps nrl pcec
 ONCVPSP-3.2018-03-01Hamann's oncvpsp                        
 4s 2.00  r= 1.52/4p 6.00  r= 1.31/4d 0.00  r= 1.52/                   
</pseudopotential_header>
</preamble>
Sr                            # Symbol
Sr                            # Label
   38                         # Atomic number
     10.0000000000                             # Valence charge
     87.6200000000        # Mass 
     122.208511008        # Self energy 
   2   6                      # Lmax for basis, no. of nl orbitals 
   2   6                      # Lmax for projectors, no. of nl KB projectors
# PAOs:__________________________
  0  4  1  0  2.000000   #orbital l, n, z, is_polarized, population
 500    0.1110673025601192E-01     5.542258397749950     # npts, delta, cutoff
     0.000000000000000        0.8487737841276062E-01
    0.1110673025601192E-01    0.8519576254521498E-01
    0.2221346051202385E-01    0.8615068586096136E-01
    0.3332019076803577E-01    0.8774031658108117E-01
    0.4442692102404770E-01    0.8996179823237850E-01
    0.5553365128005962E-01    0.9281114320684843E-01
    0.6664038153607155E-01    0.9628324411874406E-01
    0.7774711179208346E-01    0.1003718882779811    
    0.8885384204809539E-01    0.1050697751863829    
    0.9996057230410732E-01    0.1103685369482708    
    0.1110673025601192        0.1162587614725982    
    0.1221740328161312        0.1227300183309154    
    0.1332807630721431        0.1297708871238240    
    0.1443874933281550        0.1373689881981705    
    0.1554942235841669        0.1455110155481777    
    0.1666009538401789        0.1541827717259836    
    0.1777076840961908        0.1633692045810403    
    0.1888144143522027        0.1730544456432974    
    0.1999211446082146        0.1832218499623455    
    0.2110278748642266        0.1938540372137313    
    0.2221346051202385        0.2049329338844578    
    0.2332413353762504        0.2164398163522036    
    0.2443480656322623        0.2283553546770050    
    0.2554547958882742        0.2406596569299040    
    0.2665615261442862        0.2533323138902858    
    0.2776682564002981        0.2663524439521472    
    0.2887749866563100        0.2796987380892343    
    0.2998817169123220        0.2933495047395944    
    0.3109884471683338        0.3072827144815505    
    0.3220951774243458        0.3214760443851239    
    0.3332019076803577        0.3359069219353589    
    0.3443086379363696        0.3505525684366234    
    0.3554153681923816        0.3653900418196300    
    0.3665220984483935        0.3803962787852931    
    0.3776288287044054        0.3955481362317014    
    0.3887355589604173        0.4108224319218965    
    0.3998422892164293        0.4261959843610483    
    0.4109490194724412        0.4416456518614427    
    0.4220557497284531        0.4571483707827328    
    0.4331624799844651        0.4726811929426207    
    0.4442692102404769        0.4882213221998115    
    0.4553759404964889        0.5037461502163603    
    0.4664826707525008        0.5192332914105111    
    0.4775894010085127        0.5346606171138005    
    0.4886961312645247        0.5500062889473640    
    0.4998028615205366        0.5652487914323595    
    0.5109095917765485        0.5803669638479834    
    0.5220163220325604        0.5953400313479016    
    0.5331230522885724        0.6101476353421396    
    0.5442297825445843        0.6247698631465661    
    0.5553365128005961        0.6391872768963524    
    0.5664432430566081        0.6533809417131913    
    0.5775499733126200        0.6673324531088006    
    0.5886567035686320        0.6810239635995644    
    0.5997634338246439        0.6944382084991395    
    0.6108701640806559        0.7075585308476754    
    0.6219768943366677        0.7203689054282696    
    0.6330836245926796        0.7328539618133282    
    0.6441903548486916        0.7449990063761688    
    0.6552970851047035        0.7567900431961910    
    0.6664038153607155        0.7682137937799627    
    0.6775105456167274        0.7792577155152588    
    0.6886172758727392        0.7899100187709363    
    0.6997240061287512        0.8001596825525661    
    0.7108307363847631        0.8099964686219001    
    0.7219374666407751        0.8194109339880532    
    0.7330441968967870        0.8283944416791443    
    0.7441509271527988        0.8369391697058509    
    0.7552576574088108        0.8450381181322512    
    0.7663643876648227        0.8526851141749755    
    0.7774711179208347        0.8598748152586079    
    0.7885778481768466        0.8666027099638435    
    0.7996845784328586        0.8728651168146372    
    0.8107913086888704        0.8786591808617823    
    0.8218980389448823        0.8839828680325443    
    0.8330047692008943        0.8888349572293054    
    0.8441114994569062        0.8932150301744413    
    0.8552182297129182        0.8971234590134241    
    0.8663249599689301        0.9005613917037981    
    0.8774316902249419        0.9035307352333473    
    0.8885384204809539        0.9060341367268666    
    0.8996451507369658        0.9080749625168759    
    0.9107518809929778        0.9096572752693399    
    0.9218586112489897        0.9107858092707467    
    0.9329653415050017        0.9114659439974895    
    0.9440720717610135        0.9117036761023380    
    0.9551788020170254        0.9115055899655327    
    0.9662855322730374        0.9108788269695627    
    0.9773922625290493        0.9098310536669676    
    0.9884989927850613        0.9083704290191239    
    0.9996057230410732        0.9065055708911272    
     1.010712453297085        0.9042455219931622    
     1.021819183553097        0.9015997154622942    
     1.032925913809109        0.8985779402803125    
     1.044032644065121        0.8951903067229292    
     1.055139374321133        0.8914472119816115    
     1.066246104577145        0.8873593067514071    
     1.077352834833157        0.8829374603954977    
     1.088459565089169        0.8781927258138131    
     1.099566295345180        0.8731363629246749    
     1.110673025601192        0.8677796837183568    
     1.121779755857204        0.8621340957990473    
     1.132886486113216        0.8562111124368824    
     1.143993216369228        0.8500222731613541    
     1.155099946625240        0.8435791379826882    
     1.166206676881252        0.8368932599000732    
     1.177313407137264        0.8299761637981901    
     1.188420137393276        0.8228393267233115    
     1.199526867649288        0.8154941599489075    
     1.210633597905300        0.8079519928418832    
     1.221740328161312        0.8002240585232435    
     1.232847058417323        0.7923214812954018    
     1.243953788673335        0.7842552657956282    
     1.255060518929347        0.7760362878219684    
     1.266167249185359        0.7676752867670277    
     1.277273979441371        0.7591828595553176    
     1.288380709697383        0.7505694559210726    
     1.299487439953395        0.7418453750370890    
     1.310594170209407        0.7330207634720339    
     1.321700900465419        0.7241056144246782    
     1.332807630721431        0.7151097674432829    
     1.343914360977443        0.7060429089000502    
     1.355021091233455        0.6969145729713726    
     1.366127821489467        0.6877341438945895    
     1.377234551745478        0.6785108584546442    
     1.388341282001490        0.6692538086658867    
     1.399448012257502        0.6599719443227464    
     1.410554742513514        0.6506740756693621    
     1.421661472769526        0.6413688763705783    
     1.432768203025538        0.6320648857409463    
     1.443874933281550        0.6227705115950650    
     1.454981663537562        0.6134940314644518    
     1.466088393793574        0.6042435806548928    
     1.477195124049586        0.5950272428355677    
     1.488301854305598        0.5858528792046184    
     1.499408584561610        0.5767280005443335    
     1.510515314817622        0.5676607106153944    
     1.521622045073634        0.5586588172350504    
     1.532728775329645        0.5497270234138650    
     1.543835505585657        0.5408688134017431    
     1.554942235841669        0.5320870373916009    
     1.566048966097681        0.5233843265791391    
     1.577155696353693        0.5147633724015857    
     1.588262426609705        0.5062265260257859    
     1.599369156865717        0.4977758692725472    
     1.610475887121729        0.4894133433211387    
     1.621582617377741        0.4811406890156659    
     1.632689347633753        0.4729594692165890    
     1.643796077889765        0.4648710779276133    
     1.654902808145777        0.4568767486327194    
     1.666009538401789        0.4489775630876330    
     1.677116268657801        0.4411744593052375    
     1.688222998913812        0.4334682392502178    
     1.699329729169824        0.4258595762421108    
     1.710436459425836        0.4183490219900451    
     1.721543189681848        0.4109370133437753    
     1.732649919937860        0.4036238787527549    
     1.743756650193872        0.3964098444248829    
     1.754863380449884        0.3892950402099988    
     1.765970110705896        0.3822795052215004    
     1.777076840961908        0.3753631932018082    
     1.788183571217920        0.3685459776415124    
     1.799290301473932        0.3618276566633667    
     1.810397031729944        0.3552079576800165    
     1.821503761985956        0.3486865418345096    
     1.832610492241967        0.3422630082324504    
     1.843717222497979        0.3359368979743294    
     1.854823952753991        0.3297076979962143    
     1.865930683010003        0.3235748447268507    
     1.877037413266015        0.3175377275687223    
     1.888144143522027        0.3115956922106433    
     1.899250873778039        0.3057480437788606    
     1.910357604034051        0.2999940498337488    
     1.921464334290063        0.2943329432185465    
     1.932571064546075        0.2887639247667667    
     1.943677794802087        0.2832861658741743    
     1.954784525058099        0.2778988109415489    
     1.965891255314111        0.2726009796936398    
     1.976997985570123        0.2673917693800802    
     1.988104715826134        0.2622702568632490    
     1.999211446082146        0.2572355005984341    
     2.010318176338158        0.2522865425109020    
     2.021424906594170        0.2474224097746227    
     2.032531636850182        0.2426421164972411    
     2.043638367106194        0.2379446653152847    
     2.054745097362206        0.2333290489040882    
     2.065851827618218        0.2287942514059507    
     2.076958557874230        0.2243392497807128    
     2.088065288130242        0.2199630150819887    
     2.099172018386254        0.2156645136626583    
     2.110278748642266        0.2114427083130225    
     2.121385478898278        0.2072965593344221    
     2.132492209154289        0.2032250255517997    
     2.143598939410301        0.1992270652675320    
     2.154705669666313        0.1953016371598102    
     2.165812399922325        0.1914477011277438    
     2.176919130178337        0.1876642190858507    
     2.188025860434349        0.1839501557104949    
     2.199132590690361        0.1803044791400667    
     2.210239320946373        0.1767261616316538    
     2.221346051202385        0.1732141801757505    
     2.232452781458397        0.1697675170711927    
     2.243559511714408        0.1663851604623621    
     2.254666241970420        0.1630661048399488    
     2.265772972226432        0.1598093515076012    
     2.276879702482444        0.1566139090155318    
     2.287986432738456        0.1534787935628647    
     2.299093162994468        0.1504030293703852    
     2.310199893250480        0.1473856490245704    
     2.321306623506492        0.1444256937948909    
     2.332413353762504        0.1415222139251173    
     2.343520084018516        0.1386742689000609    
     2.354626814274528        0.1358809276891472    
     2.365733544530540        0.1331412689673791    
     2.376840274786552        0.1304543813153931    
     2.387947005042564        0.1278193633991370    
     2.399053735298576        0.1252353241302860    
     2.410160465554588        0.1227013828085824    
     2.421267195810600        0.1202166692465751    
     2.432373926066612        0.1177803238778226    
     2.443480656322623        0.1153914978495673    
     2.454587386578635        0.1130493531002751    
     2.465694116834647        0.1107530624230390    
     2.476800847090659        0.1085018095157098    
     2.487907577346671        0.1062947890180130    
     2.499014307602683        0.1041312065368788    
     2.510121037858695        0.1020102786601956    
     2.521227768114707        0.9993123295977428E-01
     2.532334498370719        0.9789330798430618E-01
     2.543441228626730        0.9589575324259096E-01
     2.554547958882742        0.9393782917776729E-01
     2.565654689138754        0.9201880713321312E-01
     2.576761419394766        0.9013796931039968E-01
     2.587868149650778        0.8829460871937146E-01
     2.598974879906790        0.8648802912240521E-01
     2.610081610162802        0.8471754497118168E-01
     2.621188340418814        0.8298248133805734E-01
     2.632295070674826        0.8128217384188430E-01
     2.643401800930838        0.7961596856878388E-01
     2.654508531186850        0.7798322198836320E-01
     2.665615261442862        0.7638330086571307E-01
     2.676721991698874        0.7481558216969203E-01
     2.687828721954886        0.7327945297786115E-01
     2.698935452210898        0.7177431037831492E-01
     2.710042182466910        0.7029956136899673E-01
     2.721148912722921        0.6885462275473779E-01
     2.732255642978933        0.6743892104218707E-01
     2.743362373234945        0.6605189233326686E-01
     2.754469103490957        0.6469298221726853E-01
     2.765575833746969        0.6336164566172958E-01
     2.776682564002981        0.6205734690267000E-01
     2.787789294258993        0.6077955933421179E-01
     2.798896024515005        0.5952776539778221E-01
     2.810002754771017        0.5830145647125177E-01
     2.821109485027029        0.5710013275801058E-01
     2.832216215283041        0.5592330317634524E-01
     2.843322945539053        0.5477048524904913E-01
     2.854429675795064        0.5364120499332813E-01
     2.865536406051076        0.5253499681163001E-01
     2.876643136307088        0.5145140338274298E-01
     2.887749866563100        0.5038997555337801E-01
     2.898856596819112        0.4935027223112697E-01
     2.909963327075124        0.4833186027748832E-01
     2.921070057331136        0.4733431440193187E-01
     2.932176787587148        0.4635721705627627E-01
     2.943283517843160        0.4540015833067051E-01
     2.954390248099172        0.4446273584935854E-01
     2.965496978355184        0.4354455466707004E-01
     2.976603708611195        0.4264522716700057E-01
     2.987710438867207        0.4176437295834053E-01
     2.998817169123219        0.4090161877436229E-01
     3.009923899379231        0.4005659837180976E-01
     3.021030629635243        0.3922895242983128E-01
     3.032137359891255        0.3841832844968623E-01
     3.043244090147267        0.3762438065451547E-01
     3.054350820403279        0.3684676988993423E-01
     3.065457550659291        0.3608516352436080E-01
     3.076564280915303        0.3533923534984658E-01
     3.087671011171315        0.3460866548315686E-01
     3.098777741427327        0.3389314026705804E-01
     3.109884471683339        0.3319235217185356E-01
     3.120991201939351        0.3250599969735030E-01
     3.132097932195363        0.3183378727471094E-01
     3.143204662451375        0.3117542516899930E-01
     3.154311392707386        0.3053062938222908E-01
     3.165418122963398        0.2989912155604753E-01
     3.176524853219410        0.2928062887564342E-01
     3.187631583475422        0.2867488397373503E-01
     3.198738313731434        0.2808162483550436E-01
     3.209845043987446        0.2750059470329790E-01
     3.220951774243458        0.2693154198279279E-01
     3.232058504499470        0.2637422014981091E-01
     3.243165234755482        0.2582838765719885E-01
     3.254271965011494        0.2529380784327335E-01
     3.265378695267505        0.2477024884077810E-01
     3.276485425523517        0.2425748348703737E-01
     3.287592155779529        0.2375528923460115E-01
     3.298698886035541        0.2326344806340706E-01
     3.309805616291553        0.2278174639377029E-01
     3.320912346547565        0.2230997500058150E-01
     3.332019076803577        0.2184792892850546E-01
     3.343125807059589        0.2139540740852026E-01
     3.354232537315601        0.2095221377552409E-01
     3.365339267571613        0.2051815538731863E-01
     3.376445997827625        0.2009304354471656E-01
     3.387552728083637        0.1967669341300300E-01
     3.398659458339649        0.1926892394450225E-01
     3.409766188595661        0.1886955780279885E-01
     3.420872918851673        0.1847842128790088E-01
     3.431979649107685        0.1809534426290547E-01
     3.443086379363697        0.1772016008173012E-01
     3.454193109619708        0.1735270551861037E-01
     3.465299839875720        0.1699282069842695E-01
     3.476406570131732        0.1664034902855499E-01
     3.487513300387744        0.1629513713189148E-01
     3.498620030643756        0.1595703478130743E-01
     3.509726760899768        0.1562589483520977E-01
     3.520833491155780        0.1530157317455178E-01
     3.531940221411792        0.1498392864034044E-01
     3.543046951667804        0.1467282297399175E-01
     3.554153681923816        0.1436812075718359E-01
     3.565260412179827        0.1406968935352629E-01
     3.576367142435839        0.1377739885222344E-01
     3.587473872691851        0.1349112201067052E-01
     3.598580602947863        0.1321073420049442E-01
     3.609687333203875        0.1293611335377457E-01
     3.620794063459887        0.1266713990963631E-01
     3.631900793715899        0.1240369676402479E-01
     3.643007523971911        0.1214566921835473E-01
     3.654114254227923        0.1189294493048258E-01
     3.665220984483935        0.1164541386504981E-01
     3.676327714739947        0.1140296824795828E-01
     3.687434444995959        0.1116550251854921E-01
     3.698541175251971        0.1093291328356072E-01
     3.709647905507983        0.1070509927552472E-01
     3.720754635763995        0.1048196130381940E-01
     3.731861366020007        0.1026340221495687E-01
     3.742968096276019        0.1004932685038429E-01
     3.754074826532030        0.9839642003129036E-02
     3.765181556788042        0.9634256381182480E-02
     3.776288287044054        0.9433080565944274E-02
     3.787395017300066        0.9236026974499640E-02
     3.798501747556078        0.9043009820313896E-02
     3.809608477812090        0.8853945078561130E-02
     3.820715208068102        0.8668750448456292E-02
     3.831821938324114        0.8487345317963885E-02
     3.842928668580126        0.8309650728198132E-02
     3.854035398836138        0.8135589342516455E-02
     3.865142129092149        0.7965085407356057E-02
     3.876248859348161        0.7798064723081271E-02
     3.887355589604173        0.7634454611433068E-02
     3.898462319860185        0.7474183882031188E-02
     3.909569050116197        0.7317182804850822E-02
     3.920675780372209        0.7163383078017810E-02
     3.931782510628221        0.7012717798829905E-02
     3.942889240884233        0.6865121434400595E-02
     3.953995971140245        0.6720529793947137E-02
     3.965102701396257        0.6578880000629263E-02
     3.976209431652269        0.6440110464402283E-02
     3.987316161908281        0.6304160855058647E-02
     3.998422892164293        0.6170972077310616E-02
     4.009529622420304        0.6040486243137643E-02
     4.020636352676316        0.5912646647973485E-02
     4.031743082932328        0.5787397745999039E-02
     4.042849813188340        0.5664685125254561E-02
     4.053956543444352        0.5544455485261191E-02
     4.065063273700364        0.5426656613173671E-02
     4.076170003956376        0.5311237361291869E-02
     4.087276734212388        0.5198147624804492E-02
     4.098383464468400        0.5087338320341024E-02
     4.109490194724412        0.4978761364191378E-02
     4.120596924980424        0.4872369651734655E-02
     4.131703655236436        0.4768117036928672E-02
     4.142810385492448        0.4665958312226890E-02
     4.153917115748460        0.4565849189013531E-02
     4.165023846004472        0.4467746278328762E-02
     4.176130576260483        0.4371607072030900E-02
     4.187237306516495        0.4277389924324595E-02
     4.198344036772507        0.4185054033695764E-02
     4.209450767028519        0.4094559425141781E-02
     4.220557497284531        0.4005866932828277E-02
     4.231664227540543        0.3918938183064377E-02
     4.242770957796555        0.3833735577623527E-02
     4.253877688052567        0.3750222277419965E-02
     4.264984418308579        0.3668362186473524E-02
     4.276091148564591        0.3588119936238260E-02
     4.287197878820603        0.3509460870227287E-02
     4.298304609076615        0.3432351028947215E-02
     4.309411339332627        0.3356757135154891E-02
     4.320518069588639        0.3282646579369396E-02
     4.331624799844651        0.3209987405717200E-02
     4.342731530100663        0.3138748298041221E-02
     4.353838260356675        0.3068898566289277E-02
     4.364944990612686        0.3000408133193787E-02
     4.376051720868698        0.2933247521178834E-02
     4.387158451124710        0.2867387839570326E-02
     4.398265181380721        0.2802800772038132E-02
     4.409371911636733        0.2739458564313264E-02
     4.420478641892745        0.2677334012110110E-02
     4.431585372148757        0.2616400449328140E-02
     4.442692102404769        0.2556631736471370E-02
     4.453798832660781        0.2498002249297675E-02
     4.464905562916793        0.2440486867714149E-02
     4.476012293172805        0.2384060964852555E-02
     4.487119023428817        0.2328700396400405E-02
     4.498225753684829        0.2274381490125767E-02
     4.509332483940841        0.2221081035612641E-02
     4.520439214196853        0.2168776274195932E-02
     4.531545944452865        0.2117444889113326E-02
     4.542652674708877        0.2067064995811728E-02
     4.553759404964889        0.2017615132485288E-02
     4.564866135220901        0.1969074250779086E-02
     4.575972865476913        0.1921421706675501E-02
     4.587079595732924        0.1874637251577975E-02
     4.598186325988936        0.1828701023528165E-02
     4.609293056244948        0.1783593538636020E-02
     4.620399786500960        0.1739295682656103E-02
     4.631506516756972        0.1695788702996810E-02
     4.642613247012984        0.1653054199450055E-02
     4.653719977268996        0.1611074118116342E-02
     4.664826707525008        0.1569830742395987E-02
     4.675933437781020        0.1529306685626536E-02
     4.687040168037032        0.1489484929290803E-02
     4.698146898293044        0.1450348618155146E-02
     4.709253628549056        0.1411881359618896E-02
     4.720360358805068        0.1374067020200155E-02
     4.731467089061080        0.1336889762300155E-02
     4.742573819317092        0.1300334416616313E-02
     4.753680549573104        0.1264384868176257E-02
     4.764787279829116        0.1229026471759386E-02
     4.775894010085127        0.1194244533033626E-02
     4.787000740341139        0.1160024630989766E-02
     4.798107470597151        0.1126352598661067E-02
     4.809214200853163        0.1093213703088033E-02
     4.820320931109175        0.1060596164885683E-02
     4.831427661365187        0.1028485501486272E-02
     4.842534391621199        0.9968682513770010E-03
     4.853641121877211        0.9657311253992693E-03
     4.864747852133223        0.9350585310534028E-03
     4.875854582389235        0.9048434554000324E-03
     4.886961312645247        0.8750710204091413E-03
     4.898068042901259        0.8457291714481734E-03
     4.909174773157271        0.8168064971799568E-03
     4.920281503413282        0.7882925198233664E-03
     4.931388233669294        0.7601847976162351E-03
     4.942494963925306        0.7324593546150959E-03
     4.953601694181318        0.7051188988977582E-03
     4.964708424437330        0.6781614299902953E-03
     4.975815154693342        0.6515879779774333E-03
     4.986921884949354        0.6253989607192422E-03
     4.998028615205365        0.5996098700072920E-03
     5.009135345461377        0.5742271928722396E-03
     5.020242075717389        0.5492633230764644E-03
     5.031348805973401        0.5247328042410851E-03
     5.042455536229413        0.5006519871851499E-03
     5.053562266485425        0.4770357924842804E-03
     5.064668996741437        0.4539096328800941E-03
     5.075775726997449        0.4312896695688240E-03
     5.086882457253461        0.4091949620888037E-03
     5.097989187509473        0.3876441085891067E-03
     5.109095917765485        0.3666548819887658E-03
     5.120202648021497        0.3462450959735316E-03
     5.131309378277509        0.3264270759165680E-03
     5.142416108533521        0.3072158203729891E-03
     5.153522838789533        0.2886232149788817E-03
     5.164629569045545        0.2706592171386968E-03
     5.175736299301557        0.2533323753667998E-03
     5.186843029557568        0.2366470730227715E-03
     5.197949759813580        0.2206074938379609E-03
     5.209056490069592        0.2052150771176668E-03
     5.220163220325604        0.1904690948956236E-03
     5.231269950581616        0.1763666749426765E-03
     5.242376680837628        0.1629284396118503E-03
     5.253483411093640        0.1500909793605434E-03
     5.264590141349652        0.1378702620730901E-03
     5.275696871605664        0.1262576680098009E-03
     5.286803601861676        0.1152436935834955E-03
     5.297910332117688        0.1048175082716110E-03
     5.309017062373700        0.9493861775644473E-04
     5.320123792629712        0.8565319295883249E-04
     5.331230522885724        0.7691501872335847E-04
     5.342337253141736        0.6869919582084932E-04
     5.353443983397748        0.6097556379815177E-04
     5.364550713653760        0.5370910354652168E-04
     5.375657443909772        0.4692659547177485E-04
     5.386764174165783        0.4044440333193379E-04
     5.397870904421795        0.3428149624808246E-04
     5.408977634677807        0.2840387425273864E-04
     5.420084364933819        0.2278865150578775E-04
     5.431191095189830        0.1742883308165054E-04
     5.442297825445842        0.1214478635723925E-04
     5.453404555701854        0.7381401782728530E-05
     5.464511285957866        0.3062114392211038E-05
     5.475618016213878       -0.6952530011517423E-06
     5.486724746469890       -0.3737734093374882E-05
     5.497831476725902       -0.5873941470282764E-05
     5.508938206981914       -0.6069823242156295E-05
     5.520044937237926       -0.5584853881035726E-05
     5.531151667493938       -0.3634440100093399E-05
     5.542258397749950         0.000000000000000    
  0  5  1  0  2.000000   #orbital l, n, z, is_polarized, population
 500    0.1323087539651239E-01     6.602206822859682     # npts, delta, cutoff
     0.000000000000000        0.4237492750695961E-01
    0.1323087539651239E-01    0.4259689139413125E-01
    0.2646175079302478E-01    0.4326224238438226E-01
    0.3969262618953717E-01    0.4436879156392584E-01
    0.5292350158604956E-01    0.4591300352471239E-01
    0.6615437698256195E-01    0.4788996404385985E-01