<preamble>

<basis_specs>
===============================================================================
Ti                   Z=  22    Mass=  47.880        Charge= 0.14884    
Lmxo=2 Lmxkb= 2    BasisType=split      Semic=T
L=0  Nsemic=1  Cnfigmx=4
          n=1  nzeta=1  polorb=0  (3s)
            splnorm:   0.15000    
               vcte:    89.059    
               rinn:    3.2900    
               qcoe:    0.0000    
               qyuk:    0.0000    
               qwid:   0.10000E-01
                rcs:    5.8063    
            lambdas:    1.0000    
          n=2  nzeta=2  polorb=0  (4s)
            splnorm:   0.15000    
               vcte:    86.234    
               rinn:    4.4569    
               qcoe:    0.0000    
               qyuk:    0.0000    
               qwid:   0.10000E-01
                rcs:    6.2585      3.9906    
            lambdas:    1.0000      1.0000    
L=1  Nsemic=1  Cnfigmx=4
          n=1  nzeta=1  polorb=0  (3p)
            splnorm:   0.15000    
               vcte:    100.88    
               rinn:    2.7882    
               qcoe:    0.0000    
               qyuk:    0.0000    
               qwid:   0.10000E-01
                rcs:    5.6629    
            lambdas:    1.0000    
          n=2  nzeta=1  polorb=0  (4p)
            splnorm:   0.15000    
               vcte:    14.333    
               rinn:    1.5899    
               qcoe:    0.0000    
               qyuk:    0.0000    
               qwid:   0.10000E-01
                rcs:    5.2537    
            lambdas:    1.0000    
L=2  Nsemic=0  Cnfigmx=3
          n=1  nzeta=2  polorb=0  (3d)
            splnorm:   0.15000    
               vcte:    47.831    
               rinn:    5.2681    
               qcoe:    0.0000    
               qyuk:    0.0000    
               qwid:   0.10000E-01
                rcs:    6.2585      2.8833    
            lambdas:    1.0000      1.0000    
-------------------------------------------------------------------------------
L=0  Nkbl=2  erefs: 0.17977+309 0.17977+309
L=1  Nkbl=2  erefs: 0.17977+309 0.17977+309
L=2  Nkbl=1  erefs: 0.17977+309
===============================================================================
</basis_specs>

<pseudopotential_header>
 Ti ps nrl pcec
 ONCVPSP-3.2018-03-01Hamann's oncvpsp                        
 3s 2.00  r= 1.36/3p 6.00  r= 1.31/3d 2.00  r= 1.66/                   
</pseudopotential_header>
</preamble>
Ti                            # Symbol
Ti                            # Label
   22                         # Atomic number
     12.0000000000                             # Valence charge
     47.8800000000        # Mass 
     176.418308539        # Self energy 
   2   7                      # Lmax for basis, no. of nl orbitals 
   2   6                      # Lmax for projectors, no. of nl KB projectors
# PAOs:__________________________
  0  3  1  0  2.000000   #orbital l, n, z, is_polarized, population
 500    0.1163580899014869E-01     5.806268686084199     # npts, delta, cutoff
     0.000000000000000        0.9556061626521236    
    0.1163580899014869E-01    0.9560124734184190    
    0.2327161798029739E-01    0.9572379838179444    
    0.3490742697044608E-01    0.9592756875542748    
    0.4654323596059478E-01    0.9621183809632173    
    0.5817904495074348E-01    0.9657560131741932    
    0.6981485394089217E-01    0.9701757201494239    
    0.8145066293104086E-01    0.9753618684114559    
    0.9308647192118956E-01    0.9812961083401738    
    0.1047222809113383        0.9879574369354782    
    0.1163580899014870        0.9953222699219899    
    0.1279938988916356         1.003364523046962    
    0.1396297078817843         1.012055702394315    
    0.1512655168719330         1.021365003506596    
    0.1629013258620817         1.031259419072828    
    0.1745371348522304         1.041703854903688    
    0.1861729438423791         1.052661253876428    
    0.1978087528325278         1.064092727490635    
    0.2094445618226765         1.075957694632719    
    0.2210803708128252         1.088214027102275    
    0.2327161798029739         1.100818201407623    
    0.2443519887931226         1.113725456291688    
    0.2559877977832713         1.126889955403196    
    0.2676236067734200         1.140264954482985    
    0.2792594157635687         1.153802972391499    
    0.2908952247537174         1.167455965262156    
    0.3025310337438661         1.181175503026956    
    0.3141668427340147         1.194912947526092    
    0.3258026517241635         1.208619631383451    
    0.3374384607143122         1.222247036805016    
    0.3490742697044609         1.235746973438363    
    0.3607100786946095         1.249071754419038    
    0.3723458876847582         1.262174369724062    
    0.3839816966749069         1.275008655954649    
    0.3956175056650556         1.287529461679694    
    0.4072533146552043         1.299692807488597    
    0.4188891236453530         1.311456039927008    
    0.4305249326355017         1.322777978521390    
    0.4421607416256504         1.333619055138314    
    0.4537965506157991         1.343941444971128    
    0.4654323596059478         1.353709188500205    
    0.4770681685960965         1.362888303832446    
    0.4887039775862452         1.371446888890726    
    0.5003397865763939         1.379355212993864    
    0.5119755955665426         1.386585797441714    
    0.5236114045566913         1.393113484797607    
    0.5352472135468400         1.398915496640668    
    0.5468830225369886         1.403971479642837    
    0.5585188315271373         1.408263539908891    
    0.5701546405172860         1.411776265601391    
    0.5817904495074347         1.414496737955532    
    0.5934262584975835         1.416414530870169    
    0.6050620674877322         1.417521699339981    
    0.6166978764778809         1.417812757068857    
    0.6283336854680295         1.417284643675216    
    0.6399694944581782         1.415936681965187    
    0.6516053034483269         1.413770525808858    
    0.6632411124384756         1.410790099207173    
    0.6748769214286243         1.407001527182458    
    0.6865127304187730         1.402413059163105    
    0.6981485394089217         1.397034985562738    
    0.7097843483990703         1.390879548276108    
    0.7214201573892191         1.383960845827528    
    0.7330559663793678         1.376294733913708    
    0.7446917753695165         1.367898722157114    
    0.7563275843596652         1.358791867128537    
    0.7679633933498139         1.348994662336425    
    0.7795992023399626         1.338528968709558    
    0.7912350113301112         1.327417902335651    
    0.8028708203202599         1.315685476142722    
    0.8145066293104086         1.303356842907615    
    0.8261424383005573         1.290458017650520    
    0.8377782472907060         1.277015788305649    
    0.8494140562808548         1.263057605215808    
    0.8610498652710035         1.248611474974116    
    0.8726856742611521         1.233705856579223    
    0.8843214832513008         1.218369560343200    
    0.8959572922414495         1.202631649817310    
    0.9075931012315982         1.186521346955028    
    0.9192289102217469         1.170067940688279    
    0.9308647192118956         1.153300699051938    
    0.9425005282020443         1.136248784954254    
    0.9541363371921929         1.118941175656890    
    0.9657721461823416         1.101406585998333    
    0.9774079551724904         1.083673395368458    
    0.9890437641626391         1.065769578420354    
     1.000679573152788         1.047722639487890    
     1.012315382142936         1.029559550664304    
     1.023951191133085         1.011306693487426    
     1.035587000123234        0.9929898041716191    
     1.047222809113383        0.9746339223242825    
     1.058858618103531        0.9562633430855999    
     1.070494427093680        0.9379015726338095    
     1.082130236083829        0.9195712870040478    
     1.093766045073977        0.9012942941765744    
     1.105401854064126        0.8830914993989426    
     1.117037663054275        0.8649828737163990    
     1.128673472044423        0.8469874256948829    
     1.140309281034572        0.8291231763308775    
     1.151945090024721        0.8114071371514178    
     1.163580899014869        0.7938552915158460    
     1.175216708005018        0.7764825791376027    
     1.186852516995167        0.7593028838497183    
     1.198488325985316        0.7423290246400168    
     1.210124134975464        0.7255727499836214    
     1.221759943965613        0.7090447354973999    
     1.233395752955762        0.6927545849401100    
     1.245031561945910        0.6767108345713420    
     1.256667370936059        0.6609209608795001    
     1.268303179926208        0.6453913916415912    
     1.279938988916356        0.6301275203995250    
     1.291574797906505        0.6151337242137151    
     1.303210606896654        0.6004133847863298    
     1.314846415886803        0.5859689118713586    
     1.326482224876951        0.5718017719654909    
     1.338118033867100        0.5579125168408130    
     1.349753842857249        0.5443008224796609    
     1.361389651847397        0.5309655033210967    
     1.373025460837546        0.5179046493171180    
     1.384661269827695        0.5051159096227333    
     1.396297078817843        0.4925966821240130    
     1.407932887807992        0.4803442079864145    
     1.419568696798141        0.4683555212557285    
     1.431204505788289        0.4566274965661515    
     1.442840314778438        0.4451568647731911    
     1.454476123768587        0.4339402283099487    
     1.466111932758736        0.4229740773216455    
     1.477747741748884        0.4122548041111364    
     1.489383550739033        0.4017787166826072    
     1.501019359729182        0.3915420512621580    
     1.512655168719330        0.3815409839120760    
     1.524290977709479        0.3717716412902592    
     1.535926786699628        0.3622301106027241    
     1.547562595689776        0.3529124488020033    
     1.559198404679925        0.3438146910821638    
     1.570834213670074        0.3349328587129620    
     1.582470022660222        0.3262629662484869    
     1.594105831650371        0.3178010281680583    
     1.605741640640520        0.3095430649957691    
     1.617377449630669        0.3014851088552045    
     1.629013258620817        0.2936232085827634    
     1.640649067610966        0.2859534343905850    
     1.652284876601115        0.2784718821524169    
     1.663920685591263        0.2711746773789173    
     1.675556494581412        0.2640579787067884    
     1.687192303571561        0.2571179810230795    
     1.698828112561710        0.2503509182892120    
     1.710463921551858        0.2437530660847638    
     1.722099730542007        0.2373207440027443    
     1.733735539532156        0.2310503177217090    
     1.745371348522304        0.2249382008017554    
     1.757007157512453        0.2189808562821166    
     1.768642966502602        0.2131747980427199    
     1.780278775492750        0.2075165919996015    
     1.791914584482899        0.2020028571439871    
     1.803550393473048        0.1966302663925728    
     1.815186202463196        0.1913955472846313    
     1.826822011453345        0.1862954825450493    
     1.838457820443494        0.1813269105145887    
     1.850093629433643        0.1764867254574242    
     1.861729438423791        0.1717718777573853    
     1.873365247413940        0.1671793740109857    
     1.885001056404089        0.1627062770251645    
     1.896636865394237        0.1583497057279247    
     1.908272674384386        0.1541068349987738    
     1.919908483374535        0.1499748954259575    
     1.931544292364683        0.1459511729970742    
     1.943180101354832        0.1420330087287751    
     1.954815910344981        0.1382177982416760    
     1.966451719335129        0.1345029912853947    
     1.978087528325278        0.1308860912191666    
     1.989723337315427        0.1273646544523094    
     2.001359146305576        0.1239362898493667    
     2.012994955295724        0.1205986581036208    
     2.024630764285873        0.1173494710832298    
     2.036266573276022        0.1141864911531298    
     2.047902382266170        0.1111075304764396    
     2.059538191256319        0.1081104502979379    
     2.071174000246468        0.1051931602129999    
     2.082809809236617        0.1023536174241334    
     2.094445618226765        0.9958982598733139E-01
     2.106081427216914        0.9689983605102963E-01
     2.117717236207063        0.9428174308878970E-01
     2.129353045197211        0.9173368712939423E-01
     2.140988854187360        0.8925385198299395E-01
     2.152624663177508        0.8684046446470049E-01
     2.164260472167657        0.8449179362075140E-01
     2.175896281157806        0.8220614995481802E-01
     2.187532090147954        0.7998188465783630E-01
     2.199167899138103        0.7781738883885102E-01
     2.210803708128252        0.7571109276602857E-01
     2.222439517118401        0.7366146510603590E-01
     2.234075326108549        0.7166701215806257E-01
     2.245711135098698        0.6972627710589087E-01
     2.257346944088847        0.6783783927587163E-01
     2.268982753078995        0.6600031339995138E-01
     2.280618562069144        0.6421234888261697E-01
     2.292254371059293        0.6247262908603492E-01
     2.303890180049442        0.6077987061363380E-01
     2.315525989039590        0.5913282258514784E-01
     2.327161798029739        0.5753026593784045E-01
     2.338797607019888        0.5597101272743327E-01
     2.350433416010036        0.5445390544628687E-01
     2.362069225000185        0.5297781634016729E-01
     2.373705033990334        0.5154164674228103E-01
     2.385340842980483        0.5014432640956089E-01
     2.396976651970631        0.4878481287140204E-01
     2.408612460960780        0.4746209078009250E-01
     2.420248269950929        0.4617517127674337E-01
     2.431884078941077        0.4492309136789789E-01
     2.443519887931226        0.4370491330828719E-01
     2.455155696921375        0.4251972399538640E-01
     2.466791505911524        0.4136663437213850E-01
     2.478427314901672        0.4024477884131151E-01
     2.490063123891820        0.3915331468967914E-01
     2.501698932881969        0.3809142152252092E-01
     2.513334741872118        0.3705830070869972E-01
     2.524970550862267        0.3605317483623449E-01
     2.536606359852415        0.3507528717856813E-01
     2.548242168842564        0.3412390117146744E-01
     2.559877977832713        0.3319829990067225E-01
     2.571513786822861        0.3229778560019798E-01
     2.583149595813010        0.3142167916131500E-01
     2.594785404803159        0.3056931965227581E-01
     2.606421213793308        0.2974006384847254E-01
     2.618057022783456        0.2893328577332267E-01
     2.629692831773605        0.2814837624947446E-01
     2.641328640763754        0.2738474246033721E-01
     2.652964449753902        0.2664180752202481E-01
     2.664600258744051        0.2591901006526204E-01
     2.676236067734200        0.2521580382727208E-01
     2.687871876724349        0.2453165725368408E-01
     2.699507685714497        0.2386605310996539E-01
     2.711143494704646        0.2321848810240435E-01
     2.722779303694795        0.2258847250862884E-01
     2.734415112684943        0.2197552981716775E-01
     2.746050921675092        0.2137919637607163E-01
     2.757686730665241        0.2079902105053054E-01
     2.769322539655390        0.2023456488903001E-01
     2.780958348645538        0.1968540079803869E-01
     2.792594157635687        0.1915111322513098E-01
     2.804229966625836        0.1863129785013442E-01
     2.815865775615984        0.1812556128426715E-01
     2.827501584606133        0.1763352077714625E-01
     2.839137393596281        0.1715480393130985E-01
     2.850773202586430        0.1668904842419144E-01
     2.862409011576579        0.1623590173741197E-01
     2.874044820566727        0.1579502089308716E-01
     2.885680629556876        0.1536607219706416E-01
     2.897316438547025        0.1494873098894360E-01
     2.908952247537174        0.1454268139863657E-01
     2.920588056527322        0.1414761610935028E-01
     2.932223865517471        0.1376323612685376E-01
     2.943859674507620        0.1338925055481925E-01
     2.955495483497768        0.1302537637611961E-01
     2.967131292487917        0.1267133823992840E-01
     2.978767101478066        0.1232686825446149E-01
     2.990402910468215        0.1199170578523039E-01
     3.002038719458363        0.1166559725865234E-01
     3.013674528448512        0.1134829597089173E-01
     3.025310337438661        0.1103956190179827E-01
     3.036946146428809        0.1073916153378790E-01
     3.048581955418958        0.1044686767557049E-01
     3.060217764409107        0.1016245929057488E-01
     3.071853573399256        0.9885721329967467E-02
     3.083489382389404        0.9616444570109269E-02
     3.095125191379553        0.9354425454382977E-02
     3.106761000369702        0.9099465939253990E-02
     3.118396809359850        0.8851373344422450E-02
     3.130032618349999        0.8609960207017462E-02
     3.141668427340148        0.8375044139701228E-02
     3.153304236330296        0.8146447692542334E-02
     3.164940045320445        0.7923998218627762E-02
     3.176575854310594        0.7707527743263257E-02
     3.188211663300742        0.7496872836701845E-02
     3.199847472290891        0.7291874490251344E-02
     3.211483281281040        0.7092377995745185E-02
     3.223119090271188        0.6898232828251936E-02
     3.234754899261337        0.6709292531896211E-02
     3.246390708251486        0.6525414608790513E-02
     3.258026517241635        0.6346460410931874E-02
     3.269662326231783        0.6172295035022386E-02
     3.281298135221932        0.6002787220083183E-02
     3.292933944212081        0.5837809247884101E-02
     3.304569753202229        0.5677236845894563E-02
     3.316205562192378        0.5520949093149278E-02
     3.327841371182527        0.5368828328346709E-02
     3.339477180172675        0.5220760060825878E-02
     3.351112989162824        0.5076632882213632E-02
     3.362748798152973        0.4936338384430868E-02
     3.374384607143122        0.4799771076942618E-02
     3.386020416133270        0.4666828300970598E-02
     3.397656225123419        0.4537410160953194E-02
     3.409292034113568        0.4411419443096232E-02
     3.420927843103716        0.4288761541646900E-02
     3.432563652093865        0.4169344390963538E-02
     3.444199461084014        0.4053078389105028E-02
     3.455835270074163        0.3939876334988430E-02
     3.467471079064311        0.3829653359037898E-02
     3.479106888054460        0.3722326883925865E-02
     3.490742697044608        0.3617816527488190E-02
     3.502378506034757        0.3516044075242581E-02
     3.514014315024906        0.3416933429995794E-02
     3.525650124015054        0.3320410562528311E-02
     3.537285933005203        0.3226403476204196E-02
     3.548921741995352        0.3134842178512430E-02
     3.560557550985501        0.3045658621310496E-02
     3.572193359975649        0.2958786722277923E-02
     3.583829168965798        0.2874162312009774E-02
     3.595464977955947        0.2791723122237459E-02
     3.607100786946095        0.2711408742541858E-02
     3.618736595936244        0.2633160634814486E-02
     3.630372404926393        0.2556922088488896E-02
     3.642008213916542        0.2482638201193447E-02
     3.653644022906690        0.2410255854162604E-02
     3.665279831896839        0.2339723681497510E-02
     3.676915640886988        0.2270992040680757E-02
     3.688551449877136        0.2204012975883564E-02
     3.700187258867285        0.2138740193656118E-02
     3.711823067857434        0.2075129002296145E-02
     3.723458876847582        0.2013136283523832E-02
     3.735094685837731        0.1952720442705986E-02
     3.746730494827880        0.1893841373872824E-02
     3.758366303818029        0.1836460391776582E-02
     3.770002112808177        0.1780540194905837E-02
     3.781637921798326        0.1726044810422154E-02
     3.793273730788475        0.1672939548908231E-02
     3.804909539778623        0.1621190941322434E-02
     3.816545348768772        0.1570766693693882E-02
     3.828181157758920        0.1521635632960990E-02
     3.839816966749069        0.1473767656916225E-02
     3.851452775739218        0.1427133680104416E-02
     3.863088584729367        0.1381705585373054E-02
     3.874724393719515        0.1337456174454191E-02
     3.886360202709664        0.1294359118794765E-02
     3.897996011699813        0.1252388914827248E-02
     3.909631820689961        0.1211520837674426E-02
     3.921267629680110        0.1171730898472039E-02
     3.932903438670259        0.1132995800130963E-02
     3.944539247660408        0.1095292901220686E-02
     3.956175056650556        0.1058600175407140E-02
     3.967810865640705        0.1022896176240859E-02
     3.979446674630854        0.9881600000368593E-03
     3.991082483621002        0.9543712573290241E-03
     4.002718292611151        0.9215100397519427E-03
     4.014354101601300        0.8895568916563278E-03
     4.025989910591449        0.8584927834678008E-03
     4.037625719581597        0.8282990843401614E-03
     4.049261528571746        0.7989575420949358E-03
     4.060897337561895        0.7704502590678046E-03
     4.072533146552043        0.7427596727916518E-03
     4.084168955542192        0.7158685356229076E-03
     4.095804764532341        0.6897599003732202E-03
     4.107440573522489        0.6644171028947393E-03
     4.119076382512638        0.6398237484568256E-03
     4.130712191502787        0.6159636975478015E-03
     4.142348000492936        0.5928210560126872E-03
     4.153983809483084        0.5703801634142480E-03
     4.165619618473233        0.5486255838494359E-03
     4.177255427463382        0.5275420977367967E-03
     4.188891236453530        0.5071146937112483E-03
     4.200527045443679        0.4873285633325868E-03
     4.212162854433828        0.4681690947191613E-03
     4.223798663423977        0.4496218679874420E-03
     4.235434472414125        0.4316726507843761E-03
     4.247070281404274        0.4143073954476612E-03
     4.258706090394423        0.3975122358579545E-03
     4.270341899384571        0.3812734852738177E-03
     4.281977708374720        0.3655776346180159E-03
     4.293613517364869        0.3504113511195885E-03
     4.305249326355017        0.3357614775840063E-03
     4.316885135345165        0.3216150318069245E-03
     4.328520944335314        0.3079592063830748E-03
     4.340156753325463        0.2947813689338382E-03
     4.351792562315612        0.2820690622541548E-03
     4.363428371305760        0.2698100049679283E-03
     4.375064180295909        0.2579920922152833E-03
     4.386699989286058        0.2466033964352278E-03
     4.398335798276206        0.2356321686029592E-03
     4.409971607266355        0.2250668388241144E-03
     4.421607416256504        0.2148960176899226E-03
     4.433243225246652        0.2051084973302684E-03
     4.444879034236801        0.1956932524485888E-03
     4.456514843226950        0.1866394418016449E-03
     4.468150652217099        0.1779364086744666E-03
     4.479786461207247        0.1695736822837558E-03
     4.491422270197396        0.1615409786490275E-03
     4.503058079187545        0.1538282013808629E-03
     4.514693888177693        0.1464254428861036E-03
     4.526329697167842        0.1393229843798021E-03
     4.537965506157991        0.1325112969055460E-03
     4.549601315148140        0.1259810416930209E-03
     4.561237124138288        0.1197230704021829E-03
     4.572872933128437        0.1137284257489496E-03
     4.584508742118586        0.1079883408804106E-03
     4.596144551108734        0.1024942397676821E-03
     4.607780360098883        0.9723773678032783E-04
     4.619416169089032        0.9221063678488192E-04
     4.631051978079181        0.8740493397841756E-04
     4.642687787069329        0.8281281165267165E-04
     4.654323596059478        0.7842664132509192E-04
     4.665959405049627        0.7423898171627293E-04
     4.677595214039775        0.7024257810635955E-04
     4.689231023029924        0.6643036050987415E-04
     4.700866832020073        0.6279544271946743E-04
     4.712502641010222        0.5933112075899755E-04
     4.724138450000370        0.5603087120442761E-04
     4.735774258990519        0.5288834983680977E-04
     4.747410067980668        0.4989738926419457E-04
     4.759045876970816        0.4705199730428512E-04
     4.770681685960965        0.4434635485833216E-04
     4.782317494951114        0.4177481375361410E-04
     4.793953303941263        0.3933189442442650E-04
     4.805589112931411        0.3701228384978546E-04
     4.817224921921560        0.3481083265390256E-04
     4.828860730911709        0.3272255289694285E-04
     4.840496539901857        0.3074261541063206E-04
     4.852132348892006        0.2886634708527972E-04
     4.863768157882155        0.2708922837249491E-04
     4.875403966872303        0.2540689013809941E-04
     4.887039775862452        0.2381511106225918E-04
     4.898675584852601        0.2230981470088145E-04
     4.910311393842750        0.2088706652322033E-04
     4.921947202832898        0.1954307111450395E-04
     4.933583011823047        0.1827416893082495E-04
     4.945218820813196        0.1707683344426117E-04
     4.956854629803344        0.1594766806868600E-04
     4.968490438793492        0.1488340308437005E-04
     4.980126247783641        0.1388089267288863E-04
     4.991762056773790        0.1293711170082330E-04
     5.003397865763938        0.1204915274136366E-04
     5.015033674754087        0.1121422298661392E-04
     5.026669483744236        0.1042964118764030E-04
     5.038305292734385        0.9692834595525837E-05
     5.049941101724533        0.9001335971715110E-05
     5.061576910714682        0.8352780501368120E-05
     5.073212719704831        0.7744902846205382E-05
     5.084848528694979        0.7175534164682229E-05
     5.096484337685128        0.6642599162648883E-05
     5.108120146675277        0.6144113220443826E-05
     5.119755955665426        0.5678179460037128E-05
     5.131391764655574        0.5242985940712478E-05
     5.143027573645723        0.4836802848857962E-05
     5.154663382635872        0.4457979736321878E-05
     5.166299191626020        0.4104942768128788E-05
     5.177935000616169        0.3776192191940717E-05
     5.189570809606318        0.3470299475694612E-05
     5.201206618596466        0.3185904877658432E-05
     5.212842427586615        0.2921714874117057E-05
     5.224478236576764        0.2676499492849726E-05
     5.236114045566913        0.2449090633256754E-05
     5.247749854557061        0.2238378523667767E-05
     5.259385663547210        0.2043310113566237E-05
     5.271021472537359        0.1862886619451058E-05
     5.282657281527507        0.1696161288193729E-05
     5.294293090517656        0.1542236359857269E-05
     5.305928899507805        0.1400264606744007E-05
     5.317564708497954        0.1269441486950822E-05
     5.329200517488102        0.1149006851231488E-05
     5.340836326478251        0.1038242067560012E-05
     5.352472135468400        0.9364680722286467E-06
     5.364107944458548        0.8431445648767547E-06
     5.375743753448697        0.7574212836648237E-06
     5.387379562438846        0.6788499333926114E-06
     5.399015371428995        0.6069053046750616E-06
     5.410651180419143        0.5410953499949886E-06
     5.422286989409292        0.4801930190745680E-06
     5.433922798399441        0.4254130700902641E-06
     5.445558607389589        0.3756215144766597E-06
     5.457194416379738        0.3303402331025953E-06
     5.468830225369887        0.2890676661319394E-06
     5.480466034360036        0.2512916870959178E-06
     5.492101843350184        0.2188172181040939E-06
     5.503737652340333        0.1860908384308908E-06
     5.515373461330482        0.1549585552137086E-06
     5.527009270320630        0.1253158053870795E-06
     5.538645079310779        0.9726896661461431E-07
     5.550280888300928        0.7111641729205057E-07
     5.561916697291077        0.4554353774153875E-07
     5.573552506281225        0.2501919077104238E-07
     5.585188315271374        0.8367312423344756E-08
     5.596824124261523       -0.4032548701273448E-08
     5.608459933251671       -0.1199585776865170E-07
     5.620095742241820       -0.1558460683827571E-07
     5.631731551231968       -0.1230345870411231E-07
     5.643367360222117       -0.8958055959528896E-08
     5.655003169212265       -0.3893370324656893E-08
     5.666638978202414        0.1848450347784647E-08
     5.678274787192563        0.7182825309215062E-08
     5.689910596182711        0.1106358176701037E-07
     5.701546405172860        0.7551857309036726E-08
     5.713182214163009        0.6441610116900435E-08
     5.724818023153158        0.3503904921402901E-08
     5.736453832143306       -0.9957575268914253E-09
     5.748089641133455       -0.6469349480491846E-08
     5.759725450123604       -0.1196434483878247E-07
     5.771361259113752       -0.5864591254958689E-08
     5.782997068103901       -0.6052389867746121E-08
     5.794632877094050       -0.4361100723640431E-08
     5.806268686084199         0.000000000000000    
  0  4  1  0  2.000000   #orbital l, n, z, is_polarized, population
 500    0.1254207167887430E-01     6.258493767758275     # npts, delta, cutoff
     0.000000000000000        0.4569282342255644    
    0.1254207167887430E-01    0.4571007279708148    
    0.2508414335774860E-01    0.4576209444501757    
    0.3762621503662290E-01    0.4584843068599194    
    0.5016828671549720E-01    0.4596853387156410    