<?xml version="1.0" encoding="UTF-8" ?>
<psml version="1.1" energy_unit="hartree" length_unit="bohr"
 uuid="fa630a90-1d64-11e8-7ddc-64dedbfaf3ff"
 xmlns="http://esl.cecam.org/PSML/ns/1.1">
<provenance creator="ONCVPSP-3.3.0+psml-3.3.0-73 (scalar-relativistic)"
 date="2018-03-01">
<annotation action="semilocal-pseudopotential-generation"
 action-cont="projectors-generation" />
<input-file name="oncvpsp-input">
<![CDATA[# atsym z nc nv iexc psfile
O 8 1 2 -116133 upf
# n l f
1 0 2.0
2 0 2.0
2 1 4.0
# lmax
2
# l rc ep ncon nbas qcut
0 1.25 0.0 4 8 8.5
1 1.35 0.0 4 8 9.4
2 1.25 0.1 4 8 6.0
# lloc lpopt rc5 dvloc0
4 5 1.2 0.0
# l nproj debl
0 2 1.0
1 2 1.0
2 1 1.0
# icmod fcfact
3 4 1.5
# epsh1 epsh2 depsh
-12.0 12.0 0.02
# rlmax drl
6.0 0.01
 0
]]>
</input-file>
</provenance>
<pseudo-atom-spec atomic-label="O" atomic-number="8" z-pseudo="6"
 flavor="Hamann&apos;s oncvpsp" relativity="scalar" spin-dft="no"
 core-corrections="yes">
<annotation pseudo-energy="-15.7281801334" />
<exchange-correlation>
<annotation oncvpsp-xc-code="-116133" oncvpsp-xc-type="libxc-interface" />
<libxc-info number-of-functionals="2">
<functional name="Perdew, Burke &amp; Ernzerhof SOL (GGA)" type="exchange"
 id="116" />
<functional name="Perdew, Burke &amp; Ernzerhof SOL (GGA)" type="correlation"
 id="133" />
</libxc-info>
</exchange-correlation>
<valence-configuration total-valence-charge="6">
<shell n="2" l="s" occupation="2" />
<shell n="2" l="p" occupation="4" />
</valence-configuration>
</pseudo-atom-spec>
<grid npts="457">
<annotation type="sampled from oncvpsp log grid"
 recipe="r(i:1..N) = r1*exp(a*(i-1)) + r=0; resampled"
 recipe-cont="r1: scale; a: step" scale="0.625000000000E-04"
 step="0.119285708653E-01" delta="0.500000000000E-02" rmax="44.1243818316" />
<grid-data>
  0.000000000000E+00  5.038585340028E-03  1.006417880273E-02  1.509787304249E-02
  2.010240735005E-02  2.521609353432E-02  3.051869836261E-02  3.563794632140E-02
  4.112243467717E-02  4.633230903787E-02  5.158323284976E-02  5.674827400167E-02
  6.243049193037E-02  6.786726449336E-02  7.290266753181E-02  7.831167165686E-02
  8.412199615352E-02  8.929191396799E-02  9.477956140646E-02  1.006044653004E-01
  1.067873525493E-01  1.120061500728E-01  1.174799950991E-01  1.232213520374E-01
  1.292432944444E-01  1.355595347938E-01  1.421844557004E-01  1.473647654853E-01
  1.527338132677E-01  1.582984754767E-01  1.640658790751E-01  1.700434106874E-01
  1.762387260605E-01  1.826597598689E-01  1.893147358765E-01  1.962121774698E-01
  2.033609185741E-01  2.107701149672E-01  2.158589486230E-01  2.210706470785E-01
  2.264081767816E-01  2.318745758018E-01  2.374729555600E-01  2.432065025990E-01
  2.490784803978E-01  2.550922312285E-01  2.612511780593E-01  2.675588265023E-01
  2.740187668094E-01  2.806346759152E-01  2.874103195305E-01  2.943495542853E-01
  3.014563299240E-01  3.087346915536E-01  3.161887819465E-01  3.238228438978E-01
  3.316412226409E-01  3.396483683203E-01  3.478488385251E-01  3.562473008824E-01
  3.648485357149E-01  3.736574387612E-01  3.826790239627E-01  3.919184263172E-01
  4.013809048022E-01  4.110718453678E-01  4.209967640023E-01  4.260487251704E-01
  4.311613098724E-01  4.363352455909E-01  4.415712685380E-01  4.468701237604E-01
  4.522325652455E-01  4.576593560285E-01  4.631512683008E-01  4.687090835204E-01
  4.743335925227E-01  4.800255956330E-01  4.857859027806E-01  4.916153336139E-01
  4.975147176173E-01  5.034848942287E-01  5.095267129594E-01  5.156410335150E-01
  5.218287259171E-01  5.280906706281E-01  5.344277586757E-01  5.408408917798E-01
  5.473309824811E-01  5.538989542709E-01  5.605457417222E-01  5.672722906228E-01
  5.740795581103E-01  5.809685128076E-01  5.879401349613E-01  5.949954165809E-01
  6.021353615798E-01  6.093609859188E-01  6.166733177498E-01  6.240733975628E-01
  6.315622783336E-01  6.391410256736E-01  6.468107179816E-01  6.545724465974E-01
  6.624273159566E-01  6.703764437481E-01  6.784209610731E-01  6.865620126059E-01
  6.948007567572E-01  7.031383658383E-01  7.115760262283E-01  7.201149385431E-01
  7.287563178056E-01  7.375013936193E-01  7.463514103427E-01  7.553076272668E-01
  7.643713187940E-01  7.735437746195E-01  7.828262999150E-01  7.922202155140E-01
  8.017268581001E-01  8.113475803973E-01  8.210837513621E-01  8.309367563784E-01
  8.409079974550E-01  8.509988934244E-01  8.612108801455E-01  8.715454107073E-01
  8.820039556358E-01  8.925880031034E-01  9.032990591406E-01  9.141386478503E-01
  9.251083116245E-01  9.362096113640E-01  9.474441267004E-01  9.588134562208E-01
  9.703192176954E-01  9.819630483078E-01  9.937466048875E-01  1.005671564146E+00
  1.017739622916E+00  1.029952498391E+00  1.042311928372E+00  1.054819671512E+00
  1.067477507570E+00  1.080287237661E+00  1.093250684513E+00  1.106369692727E+00
  1.119646129040E+00  1.133081882588E+00  1.146678865179E+00  1.160439011562E+00
  1.174364279700E+00  1.188456651057E+00  1.202718130869E+00  1.217150748440E+00
  1.231756557421E+00  1.246537636110E+00  1.261496087743E+00  1.276634040796E+00
  1.291953649286E+00  1.307457093077E+00  1.323146578194E+00  1.339024337133E+00
  1.355092629178E+00  1.371353740728E+00  1.387809985617E+00  1.404463705444E+00
  1.421317269910E+00  1.438373077149E+00  1.455633554074E+00  1.473101156723E+00
  1.490778370604E+00  1.508667711051E+00  1.526771723584E+00  1.545092984267E+00
  1.563634100078E+00  1.582397709279E+00  1.601386481790E+00  1.620603119572E+00
  1.640050357007E+00  1.659730961291E+00  1.679647732826E+00  1.699803505620E+00
  1.720201147688E+00  1.740843561460E+00  1.761733684197E+00  1.782874488408E+00
  1.804268982269E+00  1.825920210056E+00  1.847831252577E+00  1.870005227608E+00
  1.892445290339E+00  1.915154633823E+00  1.938136489429E+00  1.961394127302E+00
  1.984930856830E+00  2.008750027112E+00  2.032855027437E+00  2.057249287766E+00
  2.081936279219E+00  2.106919514570E+00  2.132202548745E+00  2.157788979330E+00
  2.183682447082E+00  2.209886636447E+00  2.236405276084E+00  2.263242139397E+00
  2.290401045070E+00  2.317885857611E+00  2.345700487902E+00  2.373848893757E+00
  2.402335080482E+00  2.431163101448E+00  2.460337058665E+00  2.489861103369E+00
  2.519739436609E+00  2.549976309849E+00  2.580576025567E+00  2.611542937874E+00
  2.642881453128E+00  2.674596030566E+00  2.706691182933E+00  2.739171477128E+00
  2.772041534853E+00  2.805306033271E+00  2.838969705671E+00  2.873037342139E+00
  2.907513790244E+00  2.942403955727E+00  2.977712803196E+00  3.013445356834E+00
  3.049606701116E+00  3.086201981530E+00  3.123236405308E+00  3.160715242172E+00
  3.198643825078E+00  3.237027550979E+00  3.275871881591E+00  3.315182344170E+00
  3.354964532300E+00  3.395224106687E+00  3.435966795968E+00  3.477198397519E+00
  3.518924778289E+00  3.561151875629E+00  3.603885698137E+00  3.647132326514E+00
  3.690897914432E+00  3.735188689406E+00  3.780010953678E+00  3.825371085123E+00
  3.871275538144E+00  3.917730844602E+00  3.964743614737E+00  4.012320538114E+00
  4.060468384571E+00  4.109194005186E+00  4.158504333248E+00  4.208406385247E+00
  4.258907261870E+00  4.310014149013E+00  4.361734318801E+00  4.414075130626E+00
  4.467044032194E+00  4.520648560580E+00  4.574896343307E+00  4.629795099427E+00
  4.685352640620E+00  4.741576872307E+00  4.798475794775E+00  4.856057504312E+00
  4.914330194364E+00  4.973302156697E+00  5.032981782577E+00  5.093377563968E+00
  5.154498094735E+00  5.216352071872E+00  5.278948296735E+00  5.342295676296E+00
  5.406403224411E+00  5.471280063104E+00  5.536935423861E+00  5.603378648948E+00
  5.670619192735E+00  5.738666623048E+00  5.807530622524E+00  5.877220989995E+00
  5.947747641875E+00  6.019120613577E+00  6.091350060940E+00  6.164446261671E+00
  6.238419616811E+00  6.313280652213E+00  6.389040020040E+00  6.465708500280E+00
  6.543297002283E+00  6.621816566311E+00  6.701278365107E+00  6.781693705488E+00
  6.863074029954E+00  6.945430918313E+00  7.028776089333E+00  7.113121402405E+00
  7.198478859234E+00  7.284860605545E+00  7.372278932811E+00  7.460746280005E+00
  7.550275235365E+00  7.640878538189E+00  7.732569080648E+00  7.825359909615E+00
  7.919264228531E+00  8.014295399273E+00  8.110466944064E+00  8.207792547393E+00
  8.306286057962E+00  8.405961490657E+00  8.506833028545E+00  8.608915024888E+00
  8.712222005187E+00  8.816768669249E+00  8.922569893280E+00  9.029640731999E+00
  9.137996420783E+00  9.247652377832E+00  9.358624206366E+00  9.470927696843E+00
  9.584578829205E+00  9.699593775155E+00  9.815988900457E+00  9.933780767263E+00
  1.005298613647E+01  1.017362197011E+01  1.029570543375E+01  1.041925389895E+01
  1.054428494574E+01  1.067081636509E+01  1.079886616147E+01  1.092845255541E+01
  1.105959398607E+01  1.119230911391E+01  1.132661682327E+01  1.146253622515E+01
  1.160008665985E+01  1.173928769977E+01  1.188015915217E+01  1.202272106200E+01
  1.216699371474E+01  1.231299763932E+01  1.246075361099E+01  1.261028265432E+01
  1.276160604617E+01  1.291474531873E+01  1.306972226255E+01  1.322655892970E+01
  1.338527763686E+01  1.354590096850E+01  1.370845178012E+01  1.387295320148E+01
  1.403942863990E+01  1.420790178358E+01  1.437839660498E+01  1.455093736424E+01
  1.472554861261E+01  1.490225519597E+01  1.508108225832E+01  1.526205524542E+01
  1.544519990836E+01  1.563054230726E+01  1.581810881495E+01  1.600792612073E+01
  1.620002123418E+01  1.639442148899E+01  1.659115454686E+01  1.679024840142E+01
  1.699173138224E+01  1.719563215882E+01  1.740197974473E+01  1.761080350166E+01
  1.782213314368E+01  1.803599874141E+01  1.825243072631E+01  1.847145989502E+01
  1.869311741376E+01  1.891743482273E+01  1.914444404060E+01  1.937417736909E+01
  1.960666749752E+01  1.984194750749E+01  2.008005087758E+01  2.032101148811E+01
  2.056486362596E+01  2.081164198948E+01  2.106138169335E+01  2.131411827367E+01
  2.156988769295E+01  2.182872634527E+01  2.209067106141E+01  2.235575911415E+01
  2.262402822352E+01  2.289551656220E+01  2.317026276095E+01  2.344830591408E+01
  2.372968558505E+01  2.401444181207E+01  2.430261511381E+01  2.459424649518E+01
  2.488937745312E+01  2.518804998256E+01  2.549030658235E+01  2.579619026134E+01
  2.610574454447E+01  2.641901347901E+01  2.673604164076E+01  2.705687414044E+01
  2.738155663013E+01  2.771013530969E+01  2.804265693341E+01  2.837916881661E+01
  2.871971884241E+01  2.906435546852E+01  2.941312773414E+01  2.976608526695E+01
  3.012327829015E+01  3.048475762963E+01  3.085057472119E+01  3.122078161784E+01
  3.159543099726E+01  3.197457616923E+01  3.235827108326E+01  3.274657033625E+01
  3.313952918029E+01  3.353720353045E+01  3.393964997282E+01  3.434692577249E+01
  3.475908888176E+01  3.517619794834E+01  3.559831232372E+01  3.602549207161E+01
  3.645779797647E+01  3.689529155219E+01  3.733803505081E+01  3.778609147142E+01
  3.823952456908E+01  3.869839886391E+01  3.916277965027E+01  3.963273300608E+01
  4.010832580215E+01  4.058962571178E+01  4.107670122032E+01  4.156962163496E+01
  4.206845709458E+01  4.257327857972E+01  4.308415792267E+01  4.360116781774E+01
  4.412438183156E+01
</grid-data>
</grid>
<valence-charge total-charge="6" is-unscreening-charge="yes"
 rescaled-to-z-pseudo="no">
<radfunc>
<data npts="457">
  3.237331176077E+00  3.239758708347E+00  3.247013096636E+00  3.259108219548E+00
  3.275908622384E+00  3.297971127309E+00  3.326043033841E+00  3.358123869941E+00
  3.397871627660E+00  3.440726705429E+00  3.488883155821E+00  3.541047468219E+00
  3.603843134740E+00  3.669137332066E+00  3.734069586772E+00  3.808497367757E+00
  3.893720772519E+00  3.974027418740E+00  4.063754812782E+00  4.163899896412E+00
  4.275535651607E+00  4.373885486451E+00  4.480939928626E+00  4.597341738849E+00
  4.723753634111E+00  4.860852127880E+00  5.009319405090E+00  5.128538658151E+00
  5.254814099959E+00  5.388416181652E+00  5.529601542991E+00  5.678607903418E+00
  5.835648188982E+00  6.000903829042E+00  6.174517159643E+00  6.356582876393E+00
  6.547138489196E+00  6.746153745385E+00  6.883479884730E+00  7.024464368680E+00
  7.169032597430E+00  7.317088172767E+00  7.468510963157E+00  7.623155101848E+00
  7.780846929369E+00  7.941382894579E+00  8.104527431607E+00  8.270010833512E+00
  8.437527147280E+00  8.606732118938E+00  8.777241221990E+00  8.948627807065E+00
  9.120421415587E+00  9.292106305305E+00  9.463120240618E+00  9.632853605620E+00
  9.800648902592E+00  9.965800703008E+00  1.012755612191E+01  1.028511588935E+01
  1.043763609441E+01  1.058423067745E+01  1.072397474492E+01  1.085590877705E+01
  1.097904379297E+01  1.109236752804E+01  1.119485166637E+01  1.124170517272E+01
  1.128546015494E+01  1.132598744017E+01  1.136315860619E+01  1.139684633330E+01
  1.142692477180E+01  1.145326992442E+01  1.147576004279E+01  1.149427603726E+01
  1.150870189868E+01  1.151892513108E+01  1.152483719376E+01  1.152633395127E+01
  1.152331612948E+01  1.151568977585E+01  1.150336672197E+01  1.148626504589E+01
  1.146430953215E+01  1.143743212679E+01  1.140557238480E+01  1.136867790716E+01
  1.132670476462E+01  1.127961790529E+01  1.122739154281E+01  1.117000952223E+01
  1.110746566021E+01  1.103976405663E+01  1.096691937426E+01  1.088895708362E+01
  1.080591366989E+01  1.071783679916E+01  1.062478544112E+01  1.052682994583E+01
  1.042405207221E+01  1.031654496618E+01  1.020441308680E+01  1.008777207880E+01
  9.966748590695E+00  9.841480037628E+00  9.712114308712E+00  9.578809419104E+00
  9.441733107384E+00  9.301062379355E+00  9.156982999809E+00  9.009688934314E+00
  8.859381743496E+00  8.706269932790E+00  8.550568261023E+00  8.392497011629E+00
  8.232281230658E+00  8.070149936058E+00  7.906335303007E+00  7.741071830306E+00
  7.574595492995E+00  7.407142886494E+00  7.238950367596E+00  7.070253197625E+00
  6.901284693010E+00  6.732275388352E+00  6.563452216892E+00  6.395037712988E+00
  6.227249240969E+00  6.060298254354E+00  5.894389589080E+00  5.729720794042E+00
  5.566481501839E+00  5.404852842347E+00  5.245006901359E+00  5.087106226345E+00
  4.931303381172E+00  4.777740551491E+00  4.626549202534E+00  4.477849791069E+00
  4.331751533466E+00  4.188352232054E+00  4.047738162254E+00  3.909984023336E+00
  3.775152956020E+00  3.643296630450E+00  3.514455408347E+00  3.388658583230E+00
  3.265924702499E+00  3.146261974776E+00  3.029668765183E+00  2.916134180076E+00
  2.805638741186E+00  2.698155147000E+00  2.593649116698E+00  2.492080308902E+00
  2.393403304133E+00  2.297568636230E+00  2.204523854223E+00  2.114214838048E+00
  2.026588095409E+00  1.941593478856E+00  1.859185167758E+00  1.779321775257E+00
  1.701966757604E+00  1.627087892191E+00  1.554654535344E+00  1.484633879958E+00
  1.416990507746E+00  1.351687192406E+00  1.288684767841E+00  1.227942339221E+00
  1.169417439156E+00  1.113066185317E+00  1.058843434575E+00  1.006702933247E+00
  9.565974631314E-01  9.084789830824E-01  8.622987659039E-01  8.180075303469E-01
  7.755555680462E-01  7.348928652476E-01  6.959692192086E-01  6.587343491827E-01
  6.231380019182E-01  5.891300516319E-01  5.566605944376E-01  5.256800372314E-01
  4.961391810585E-01  4.679892990024E-01  4.411822086595E-01  4.156703392740E-01
  3.914067936284E-01  3.683454047956E-01  3.464407878728E-01  3.256483868304E-01
  3.059245166164E-01  2.872264006684E-01  2.695122039934E-01  2.527410619797E-01
  2.368731051136E-01  2.218694797759E-01  2.076923652977E-01  1.943049874560E-01
  1.816716285917E-01  1.697576345322E-01  1.585294184993E-01  1.479544621834E-01
  1.380013141591E-01  1.286395858188E-01  1.198399449921E-01  1.115741074180E-01
  1.038148262306E-01  9.653587961412E-02  8.971205677733E-02  8.331914239226E-02
  7.733389963655E-02  7.173405197239E-02  6.649826378992E-02  6.160612003736E-02
  5.703810495456E-02  5.277558002167E-02  4.880076122962E-02  4.509669577420E-02
  4.164723827123E-02  3.843702658566E-02  3.545145736353E-02  3.267666135138E-02
  3.009947858415E-02  2.770743351829E-02  2.548871018352E-02  2.343212742233E-02
  2.152711428309E-02  1.976368562831E-02  1.813241801619E-02  1.662442590919E-02
  1.523133826001E-02  1.394527552064E-02  1.275882711678E-02  1.166502942540E-02
  1.065734428931E-02  9.729638098484E-03  8.876161464035E-03  8.091529506451E-03
  7.370702776158E-03  6.708968820500E-03  6.101924407660E-03  5.545458414553E-03
  5.035735382416E-03  4.569179740659E-03  4.142460696653E-03  3.752477786372E-03
  3.396347078329E-03  3.071388020966E-03  2.775110921596E-03  2.505205043191E-03
  2.259527303709E-03  2.036091561280E-03  1.833058467433E-03  1.648725869596E-03
  1.481519743366E-03  1.329985634517E-03  1.192780590325E-03  1.068665559625E-03
  9.564982409495E-04  8.552263582201E-04  7.638813436684E-04  6.815724080215E-04
  6.074809783994E-04  5.408554848926E-04  4.810064773639E-04  4.273020546425E-04
  3.791635889501E-04  3.360617290888E-04  2.975126666305E-04  2.630746500626E-04
  2.323447325570E-04  2.049557397334E-04  1.805734444739E-04  1.588939365155E-04
  1.396411751896E-04  1.225647142985E-04  1.074375887037E-04  9.405435277030E-05
  8.222926133729E-05  7.179458439365E-05  6.259904711481E-05  5.450638736520E-05
  4.739402319882E-05  4.115182329135E-05  3.568097361778E-05  3.089293404907E-05
  2.670847888242E-05  2.305681564286E-05  1.987477680174E-05  1.710607935002E-05
  1.470064744351E-05  1.261399360372E-05  1.080665421281E-05  9.243675284564E-06
  7.894144727537E-06  6.730767539503E-06  5.729480587405E-06  4.869103832218E-06
  4.131025055161E-06  3.498915330264E-06  2.958472668666E-06  2.497191432472E-06
  2.104155280597E-06  1.769851565916E-06  1.486005252399E-06  1.245430562795E-06
  1.041898702023E-06  8.700201287852E-07  7.251399683029E-07  6.032452724796E-07
  5.008829405189E-07  4.150872131677E-07  3.433157475203E-07  2.833933669208E-07
  2.334626621359E-07  1.919406958669E-07  1.574811330608E-07  1.289411845995E-07
  1.053528120440E-07  8.589769642936E-08  6.988552490323E-08  5.673519552118E-08
  4.595858301284E-08  3.714654705576E-08  2.995689978819E-08  2.410408119280E-08
  1.935031982570E-08  1.549808237172E-08  1.238363889666E-08  9.871591646095E-09
  7.850234007942E-09  6.227622999213E-09  4.928263535875E-09  3.890315964418E-09
  3.063250032856E-09  2.405878803590E-09  1.884715097333E-09  1.472601032423E-09
  1.147568203798E-09  8.918921377542E-10  6.913099603368E-10  5.343748181449E-10
  4.119245717334E-10  3.166457170945E-10  2.427164462162E-10  1.855152930071E-10
  1.413839792606E-10  1.074349244038E-10  8.139545481183E-11  6.148208094002E-11
  4.629933648873E-11  3.475862234204E-11  2.601329459657E-11  1.940690285824E-11
  1.443204147911E-11  1.069771237332E-11  7.903680058246E-12  5.819996574117E-12
  4.271193810072E-12  0.000000000000E+00  0.000000000000E+00  0.000000000000E+00
  0.000000000000E+00  0.000000000000E+00  0.000000000000E+00  0.000000000000E+00
  0.000000000000E+00  0.000000000000E+00  0.000000000000E+00  0.000000000000E+00
  0.000000000000E+00  0.000000000000E+00  0.000000000000E+00  0.000000000000E+00
  0.000000000000E+00  0.000000000000E+00  0.000000000000E+00  0.000000000000E+00
  0.000000000000E+00  0.000000000000E+00  0.000000000000E+00  0.000000000000E+00
  0.000000000000E+00  0.000000000000E+00  0.000000000000E+00  0.000000000000E+00
  0.000000000000E+00  0.000000000000E+00  0.000000000000E+00  0.000000000000E+00
  0.000000000000E+00  0.000000000000E+00  0.000000000000E+00  0.000000000000E+00
  0.000000000000E+00  0.000000000000E+00  0.000000000000E+00  0.000000000000E+00
  0.000000000000E+00  0.000000000000E+00  0.000000000000E+00  0.000000000000E+00
  0.000000000000E+00  0.000000000000E+00  0.000000000000E+00  0.000000000000E+00
  0.000000000000E+00  0.000000000000E+00  0.000000000000E+00  0.000000000000E+00
  0.000000000000E+00  0.000000000000E+00  0.000000000000E+00  0.000000000000E+00
  0.000000000000E+00  0.000000000000E+00  0.000000000000E+00  0.000000000000E+00
  0.000000000000E+00  0.000000000000E+00  0.000000000000E+00  0.000000000000E+00
  0.000000000000E+00  0.000000000000E+00  0.000000000000E+00  0.000000000000E+00
  0.000000000000E+00  0.000000000000E+00  0.000000000000E+00  0.000000000000E+00
  0.000000000000E+00  0.000000000000E+00  0.000000000000E+00  0.000000000000E+00
  0.000000000000E+00  0.000000000000E+00  0.000000000000E+00  0.000000000000E+00
  0.000000000000E+00  0.000000000000E+00  0.000000000000E+00  0.000000000000E+00
  0.000000000000E+00  0.000000000000E+00  0.000000000000E+00  0.000000000000E+00
  0.000000000000E+00  0.000000000000E+00  0.000000000000E+00  0.000000000000E+00
  0.000000000000E+00
</data>
</radfunc>
</valence-charge>
<pseudocore-charge matching-radius="0.382679023963"
 number-of-continuous-derivatives="4">
<annotation model-charge-form="Teter function with specified parameters" />
<radfunc>
<data npts="290">
  4.325856967626E+01  4.324804030023E+01  4.321657501259E+01  4.316411530981E+01
  4.309125144165E+01  4.299557246367E+01  4.287384344667E+01  4.273474544896E+01
  4.256242680019E+01  4.237666396919E+01  4.216795435632E+01  4.194191340342E+01
  4.166985649952E+01  4.138703422833E+01  4.110583817744E+01  4.078359044753E+01
  4.041468969915E+01  4.006715501779E+01  3.967894261803E+01  3.924576573014E+01
  3.876301280691E+01  3.833781615599E+01  3.787508808380E+01  3.737206625586E+01
  3.682590051954E+01  3.623367738597E+01  3.559245201376E+01  3.507760768158E+01
  3.453232827668E+01  3.395542805248E+01  3.334577102418E+01  3.270228995643E+01
  3.202400789651E+01  3.131006238432E+01  3.055973243326E+01  2.977246832374E+01
  2.894792418213E+01  2.808599322867E+01  2.749067351536E+01  2.687893333127E+01
  2.625096743966E+01  2.560704404343E+01  2.494751035330E+01  2.427279814713E+01
  2.358342925244E+01  2.288002087402E+01  2.216329067699E+01  2.143406152409E+01
  2.069326575420E+01  1.994194887680E+01  1.918127254590E+01  1.841251666523E+01
  1.763708046718E+01  1.685648239903E+01  1.607235864414E+01  1.528646010232E+01
  1.450064765403E+01  1.371688553783E+01  1.293723268073E+01  1.216383183766E+01
  1.139889642000E+01  1.064469492487E+01  9.903532917850E+00  9.177732571928E+00
  8.469609825841E+00  7.781449295245E+00  7.115477150170E+00  6.791484347730E+00
  6.473832261099E+00  6.162769654442E+00  5.858536012223E+00  5.561360559191E+00
  5.271461281808E+00  4.989043956820E+00  4.714301193068E+00  4.447411492980E+00
  4.188538340522E+00  3.937829322661E+00  3.695415291680E+00  3.461409575860E+00
  3.235907246205E+00  3.018984446993E+00  2.810697797922E+00  2.611083875598E+00
  2.420158781935E+00  2.237917806827E+00  2.064335192115E+00  1.899364003420E+00
  1.742936115894E+00  1.594962319262E+00  1.455332546772E+00  1.323916231772E+00
  1.200562794642E+00  1.085102261700E+00  9.773460164344E-01  8.770876822041E-01
  7.841041339946E-01  6.981566354561E-01  6.189920958311E-01  5.463444398128E-01
  4.799360817530E-01  4.194794940262E-01  3.646788577634E-01  3.152317826412E-01
  2.708310809559E-01  2.311665798867E-01  1.959269546670E-01  1.648015643863E-01
  1.374822713655E-01  1.136652245144E-01  9.305258683127E-02  7.535418725467E-02
  6.028907746292E-02  4.758697494636E-02  3.698957476602E-02  2.825171386548E-02
  2.114237361468E-02  1.544550842402E-02  1.096069075147E-02  7.503565602132E-03
  4.906110646014E-03  3.016701302774E-03  1.699983498520E-03  8.365602182881E-04
  3.225013785342E-04  6.868984168091E-05  1.950007651823E-08  5.446417897030E-05
  1.820385582137E-04  3.436743059810E-04  5.100360786580E-04  6.603029045634E-04
  7.809406858032E-04  8.644910910385E-04  9.084009621224E-04  9.139145326570E-04
  8.850482946696E-04  8.276653144179E-04  7.486622783842E-04  6.552786576723E-04
  5.545332454173E-04  4.527890956099E-04  3.554437316108E-04  2.667375612017E-04
  1.896698914194E-04  1.260089283305E-04  7.637980242064E-05  4.041308015205E-05
  1.693547291105E-05  4.184562557046E-06  3.031097570759E-08  2.187847306460E-06
  8.408424977649E-06  1.663836591080E-05  2.513908334810E-05  3.256469716601E-05
  3.799711517135E-05  4.094154283337E-05  4.128801194230E-05  3.924652736245E-05
  3.526470637739E-05  2.993726753763E-05  2.391641645881E-05  1.783113785353E-05
  1.222175782219E-05  7.494059073480E-06  3.894920665040E-06  1.509136746484E-06
  2.749660340321E-07  1.427107796508E-08  4.719750065706E-07  1.359083875427E-06
  2.393714518294E-06  3.335376398409E-06  4.009058272926E-06  4.317288372177E-06
  4.240057931438E-06  3.824101673256E-06  3.164314271068E-06  2.380894088155E-06
  1.596057034266E-06  9.138465550961E-07  4.057543946503E-07  1.037058225216E-07
  6.471489962506E-10  0.000000000000E+00  0.000000000000E+00  0.000000000000E+00
  0.000000000000E+00  0.000000000000E+00  0.000000000000E+00  0.000000000000E+00
  0.000000000000E+00  0.000000000000E+00  0.000000000000E+00  0.000000000000E+00
  0.000000000000E+00  0.000000000000E+00  0.000000000000E+00  0.000000000000E+00
  0.000000000000E+00  0.000000000000E+00  0.000000000000E+00  0.000000000000E+00
  0.000000000000E+00  0.000000000000E+00  0.000000000000E+00  0.000000000000E+00
  0.000000000000E+00  0.000000000000E+00  0.000000000000E+00  0.000000000000E+00
  0.000000000000E+00  0.000000000000E+00  0.000000000000E+00  0.000000000000E+00
  0.000000000000E+00  0.000000000000E+00  0.000000000000E+00  0.000000000000E+00
  0.000000000000E+00  0.000000000000E+00  0.000000000000E+00  0.000000000000E+00
  0.000000000000E+00  0.000000000000E+00  0.000000000000E+00  0.000000000000E+00
  0.000000000000E+00  0.000000000000E+00  0.000000000000E+00  0.000000000000E+00
  0.000000000000E+00  0.000000000000E+00  0.000000000000E+00  0.000000000000E+00
  0.000000000000E+00  0.000000000000E+00  0.000000000000E+00  0.000000000000E+00
  0.000000000000E+00  0.000000000000E+00  0.000000000000E+00  0.000000000000E+00
  0.000000000000E+00  0.000000000000E+00  0.000000000000E+00  0.000000000000E+00
  0.000000000000E+00  0.000000000000E+00  0.000000000000E+00  0.000000000000E+00
  0.000000000000E+00  0.000000000000E+00  0.000000000000E+00  0.000000000000E+00
  0.000000000000E+00  0.000000000000E+00  0.000000000000E+00  0.000000000000E+00
  0.000000000000E+00  0.000000000000E+00  0.000000000000E+00  0.000000000000E+00
  0.000000000000E+00  0.000000000000E+00  0.000000000000E+00  0.000000000000E+00
  0.000000000000E+00  0.000000000000E+00  0.000000000000E+00  0.000000000000E+00
  0.000000000000E+00  0.000000000000E+00  0.000000000000E+00  0.000000000000E+00
  0.000000000000E+00  0.000000000000E+00  0.000000000000E+00  0.000000000000E+00
  0.000000000000E+00  0.000000000000E+00  0.000000000000E+00  0.000000000000E+00
  0.000000000000E+00  0.000000000000E+00  0.000000000000E+00  0.000000000000E+00
  0.000000000000E+00  0.000000000000E+00
</data>
</radfunc>
</pseudocore-charge>
<semilocal-potentials set="scalar_relativistic">
<slps n="2" l="s" rc="1.26149608774" eref="-0.874949515970">
<radfunc>
<data npts="290">
 -3.787893276322E+00 -3.788431457869E+00 -3.790040512516E+00 -3.792726095194E+00
 -3.796462324239E+00 -3.801379189152E+00 -3.807652363505E+00 -3.814844746976E+00
 -3.823790489303E+00 -3.833478223769E+00 -3.844417064377E+00 -3.856329069136E+00
 -3.870755186934E+00 -3.885855142216E+00 -3.900972121209E+00 -3.918423074589E+00
 -3.938566716458E+00 -3.957705729897E+00 -3.979270517475E+00 -4.003563996113E+00
 -4.030924609874E+00 -4.055273512955E+00 -4.082038212325E+00 -4.111449037319E+00
 -4.143755227614E+00 -4.179225581492E+00 -4.218148847521E+00 -4.249792253402E+00
 -4.283688694652E+00 -4.319981661177E+00 -4.358820270728E+00 -4.400358761408E+00
 -4.444755801101E+00 -4.492173582091E+00 -4.542776665452E+00 -4.596730535946E+00
 -4.654199824224E+00 -4.715346149303E+00 -4.758230530519E+00 -4.802862898202E+00
 -4.849285315586E+00 -4.897537167023E+00 -4.947654590496E+00 -4.999669852652E+00
 -5.053610663139E+00 -5.109499425288E+00 -5.167352420473E+00 -5.227178923931E+00
 -5.288980250476E+00 -5.352748729273E+00 -5.418466607932E+00 -5.486104887506E+00
 -5.555622091533E+00 -5.626962974524E+00 -5.700057177697E+00 -5.774817843197E+00
 -5.851140201991E+00 -5.928900155784E+00 -6.007952879702E+00 -6.088131480381E+00
 -6.169245753968E+00 -6.251081100319E+00 -6.333397663653E+00 -6.415929785412E+00
 -6.498385871117E+00 -6.580448787365E+00 -6.661776913824E+00 -6.702052411478E+00
 -6.742005973070E+00 -6.781588968296E+00 -6.820751740855E+00 -6.859443744607E+00
 -6.897613693657E+00 -6.935209725105E+00 -6.972179572697E+00 -7.008470749003E+00
 -7.044030733221E+00 -7.078807161119E+00 -7.112748013236E+00 -7.145801797110E+00
 -7.177917719194E+00 -7.209045842187E+00 -7.239137223903E+00 -7.268144034402E+00
 -7.296019649025E+00 -7.322718716192E+00 -7.348197200088E+00 -7.372412399929E+00
 -7.395322948857E+00 -7.416888796949E+00 -7.437071183809E+00 -7.455832607060E+00
 -7.473136793111E+00 -7.488948676591E+00 -7.503234394027E+00 -7.515961295803E+00
 -7.527097979385E+00 -7.536614344542E+00 -7.544481669286E+00 -7.550672703432E+00
 -7.555161774642E+00 -7.557924900292E+00 -7.558939897161E+00 -7.558186480126E+00
 -7.555646340564E+00 -7.551303195224E+00 -7.545142796755E+00 -7.537152898019E+00
 -7.527323163634E+00 -7.515645023852E+00 -7.502111467991E+00 -7.486716776910E+00
 -7.469456196594E+00 -7.450325557621E+00 -7.429320848010E+00 -7.406437749650E+00
 -7.381671151072E+00 -7.355014651637E+00 -7.326460074246E+00 -7.295997005333E+00
 -7.263612382195E+00 -7.229290148630E+00 -7.193011000376E+00 -7.154752242067E+00
 -7.114487777279E+00 -7.072188252877E+00 -7.027821378125E+00 -6.981352438060E+00
 -6.932745019249E+00 -6.881961964278E+00 -6.828966568992E+00 -6.773724033599E+00
 -6.716203174956E+00 -6.656378402787E+00 -6.594231956808E+00 -6.529756394900E+00
 -6.462957314243E+00 -6.393856277815E+00 -6.322493907687E+00 -6.248933094273E+00