Siesta Version  : siesta-psml-R1--709-594
Architecture    : unknown
Compiler version: GNU Fortran (Ubuntu 7.4.0-1ubuntu1~18.04.1) 7.4.0
Compiler flags  : gfortran -O2 -fPIC -ftree-vectorize
PP flags        : -D__NO_PROC_POINTERS__ -DFC_HAVE_ABORT  -DSIESTA__DIAG_2STAGE
Libraries       : libsiestaLAPACK.a libsiestaBLAS.a
SERIAL version

* Running in serial mode
>> Start of run:   8-APR-2020  10:51:43

                           ***********************       
                           *  WELCOME TO SIESTA  *       
                           ***********************       

reinit: Reading from standard input
reinit: Dumped input in INPUT_TMP.16031
************************** Dump of input data file ****************************
SystemName      Calcium titanate (CaTiO3) cubic structure
#               Cubic phase
#               PBE-SOL functional
#               Theoretical lattice constant obtained for the Hamann pseudos
#               (taken from the pseudo-dojo web page)
#               Mesh Cutoff: 600 Ry
#               Monkhorst-Pack grid: 6 x 6 x 6 ; displaced 0.5 0.5 0.5
SystemLabel	CaTiO3
NumberOfSpecies	3
NumberOfAtoms	5
%block ChemicalSpeciesLabel
      1      20     Ca
      2      22     Ti
      3       8     O
%endblock ChemicalSpeciesLabel
%block PS.lmax
   Ca    3
   Ti    3
    O    3
%endblock PS.lmax
PAO.Basis  < CaTiO3basis.fdf
LatticeConstant       4.04334315 Ang
                                      #    cubic phase
%block LatticeVectors
  1.00  0.00  0.00
  0.00  1.00  0.00
  0.00  0.00  1.00
%endblock LatticeVectors
AtomicCoordinatesFormat	     Fractional
%block AtomicCoordinatesAndAtomicSpecies
  0.00  0.00  0.00       1      40.078      Ca
  0.50  0.50  0.50       2      47.867      Ti
  0.00  0.50  0.50       3      15.9994     O
  0.50  0.00  0.50       3      15.9994     O
  0.50  0.50  0.00       3      15.9994     O
%endblock AtomicCoordinatesAndAtomicSpecies
WriteCoorStep           .true.        #  Write the atomic coordinates to
                                      #     standard output at every
                                      #     MD time step or relaxation step.
%block kgrid_Monkhorst_Pack
   6  0  0  0.5
   0  6  0  0.5
   0  0  6  0.5
%endblock kgrid_Monkhorst_Pack
#
# DFT, Grid, SCF
#
%block XC.cocktail                  # Perdew-Burke-Ernzerhof SOL functional taken from the libxc library
2
GGA LIBXC-0116-GGA_X_PBE_SOL  1.0  0.0
GGA LIBXC-0133-GGA_C_PBE_SOL  0.0  1.0
%endblock XC.cocktail
MeshCutoff             600 Ry      # Defines the plane wave cutoff for the grid
DM.NumberPulay         3           # It controls the Pulay convergence
                                   #   accelerator.
DM.UseSaveDM           .true.      # Use the Density Matrix from the DM file
                                   #   if found
DM.Tolerance           1.d-4       # Tolerance in maximum difference
                                   # between input and output DM
MaxSCFIterations       100         # Maximum number of SCF Iterations
ElectronicTemperature  0.075 eV    # Electronic Temperature for the smearing
                                   #   of the Fermi-Dirac occupation function
SCF.MixAfterConvergence .false.    # Logical variable to indicate whether mixing
                                   #   is done in the last SCF cycle
                                   #   (after convergence has been achieved)
                                   #   or not.
                                   #   Not mixing after convergence improves
                                   #   the quality of the final Kohn-Sham
                                   #   energy and of the forces when mixing
                                   #   the DM.
#
# Molecular Dynamic or Relaxation variables
#
MD.TypeOfRun            cg          # Type of dynamics:
                                    #   - CG
                                    #   - Verlet
                                    #   - Nose
                                    #   - Parrinello-Rahman
                                    #   - Nose-Parrinello-Rahman
                                    #   - Anneal
                                    #   - FC
MD.VariableCell         .true.      # The lattice is relaxed together with
                                    # the atomic coordinates?
MD.NumCGsteps            20          # Number of CG steps for
                                    #   coordinate optimization
MD.MaxCGDispl           0.3 Bohr    # Maximum atomic displacement
                                    #   in one CG step
MD.MaxForceTol         0.01 eV/Ang  # Tolerance in the maximum
                                    #   atomic force
MD.MaxStressTol        0.0001 eV/Ang**3
                                    # Tolerance in the maximum
                                    #   stress in a MD.VariableCell CG optimi.
MD.UseSaveXV           .false.      # Instructs Siesta to read the
                                    #   atomic positions and velocities stored
                                    #   in file SystemLabel.XV by a
                                    #   previous run.
MD.UseSaveCG           .false.      # Instructs to read the conjugate-gradient
                                    #   hystory information stored in file
                                    #   SystemLabel.CG by a previous run.
#
# Plotting the band structure
#
BandLinesScale pi/a
%block BandLines
1   0.0 0.0 0.0 \Gamma              # Start at \Gamma
100 1.0 0.0 0.0 X                   # 100 points from \Gamma to X
100 1.0 1.0 0.0 M                   # 100 points from X to M
100 1.0 1.0 1.0 R                   # 100 points from M to R
173 0.0 0.0 0.0 \Gamma              # 173 points from R to \Gamma
141 0.0 1.0 1.0 M                   # 141 points from \Gamma to M
100 0.0 0.0 1.0 X                   # 100 points from M to X
141 1.0 1.0 1.0 R                   # 141 points from X to R
%endblock BandLines
#
# Plotting the Projected Density Of States
#
%block ProjectedDensityOfStates
  -70.00  20.00  0.150 3000  eV
%endblock ProjectedDensityOfStates
%PDOS.kgrid_Monkhorst_Pack
   120  0  0  0.5
    0 120  0  0.5
    0  0 120  0.5
%end PDOS.kgrid_Monkhorst_Pack
************************** End of input data file *****************************

reinit: -----------------------------------------------------------------------
reinit: System Name: Calcium titanate (CaTiO3) cubic structure
reinit: -----------------------------------------------------------------------
reinit: System Label: CaTiO3
reinit: -----------------------------------------------------------------------

xc:
xc:  Cocktail exchange-correlation functional:
xc:
xc: Number     Functional     Authors     Weight(Ex)   Weight(Ec)
xc:    1   GGA                   LIBXC-0116-GGA_X_PBE   1.000        0.000
xc:    2   GGA                   LIBXC-0133-GGA_C_PBE   0.000        1.000
xc:

initatom: Reading input for the pseudopotentials and atomic orbitals ----------
Species number:   1 Atomic number:   20 Label: Ca
Species number:   2 Atomic number:   22 Label: Ti
Species number:   3 Atomic number:    8 Label: O

Ground state valence configuration:   4s02

Reading pseudopotential from: Ca.psml

PSML file version: 1.1
Using libxc ids:  116 133
GGA--PBEsol XC_GGA_X_PBE_SOL--XC_GGA_C_PBE_SOL ps
 Using ATOM defaults for log grid...
PSML uuid: 3fe16a80-1d65-11e8-75e6-335877f7152c
Dumping pseudopotential information in formatted form in Ca.psdump
Ground state valence configuration:   4s02  3d02

Reading pseudopotential from: Ti.psml

PSML file version: 1.1
Using libxc ids:  116 133
GGA--PBEsol XC_GGA_X_PBE_SOL--XC_GGA_C_PBE_SOL ps
 Using ATOM defaults for log grid...
PSML uuid: 4b1d8b90-1d65-11e8-71dd-645aef4ba7d4
Dumping pseudopotential information in formatted form in Ti.psdump
Ground state valence configuration:   2s02  2p04

Reading pseudopotential from: O.psml

PSML file version: 1.1
Using libxc ids:  116 133
GGA--PBEsol XC_GGA_X_PBE_SOL--XC_GGA_C_PBE_SOL ps
 Using ATOM defaults for log grid...
PSML uuid: fa630a90-1d64-11e8-7ddc-64dedbfaf3ff
Dumping pseudopotential information in formatted form in O.psdump
Semicore shell(s) with  8 electrons included in the valence for
Ca
Semicore shell(s) with  8 electrons included in the valence for
Ti
relmxkb: Read Max KB Ang. Momentum=    3 for species Ca
relmxkb: Read Max KB Ang. Momentum=    3 for species Ti
relmxkb: Read Max KB Ang. Momentum=    3 for species O
Pseudopotential only contains V_ls up to l=2 -- lmxkb reset.
Pseudopotential only contains V_ls up to l=2 -- lmxkb reset.
Pseudopotential only contains V_ls up to l=2 -- lmxkb reset.

<basis_specs>
===============================================================================
Ca                   Z=  20    Mass=  40.080        Charge=-0.17090E-01
Lmxo=2 Lmxkb= 2    BasisType=split      Semic=T
L=0  Nsemic=1  Cnfigmx=4
          n=1  nzeta=1  polorb=0  (3s)
            splnorm:   0.15000    
               vcte:    62.189    
               rinn:    4.8192    
               qcoe:    0.0000    
               qyuk:    0.0000    
               qwid:   0.10000E-01
                rcs:    5.5305    
            lambdas:    1.0000    
          n=2  nzeta=2  polorb=0  (4s)
            splnorm:   0.15000    
               vcte:    181.85    
               rinn:    5.4983    
               qcoe:    0.0000    
               qyuk:    0.0000    
               qwid:   0.10000E-01
                rcs:    6.6166      5.1838    
            lambdas:    1.0000      1.0000    
L=1  Nsemic=1  Cnfigmx=4
          n=1  nzeta=1  polorb=0  (3p)
            splnorm:   0.15000    
               vcte:    43.485    
               rinn:    4.2885    
               qcoe:    0.0000    
               qyuk:    0.0000    
               qwid:   0.10000E-01
                rcs:    6.9894    
            lambdas:    1.0000    
          n=2  nzeta=1  polorb=0  (4p)
            splnorm:   0.15000    
               vcte:    136.69    
               rinn:    4.9908    
               qcoe:    0.0000    
               qyuk:    0.0000    
               qwid:   0.10000E-01
                rcs:    7.4225    
            lambdas:    1.0000    
L=2  Nsemic=0  Cnfigmx=3
          n=1  nzeta=1  polorb=0  (3d)
            splnorm:   0.15000    
               vcte:    82.574    
               rinn:    5.7791    
               qcoe:    0.0000    
               qyuk:    0.0000    
               qwid:   0.10000E-01
                rcs:    6.4171    
            lambdas:    1.0000    
-------------------------------------------------------------------------------
L=0  Nkbl=2  erefs: 0.17977+309 0.17977+309
L=1  Nkbl=2  erefs: 0.17977+309 0.17977+309
L=2  Nkbl=1  erefs: 0.17977+309
===============================================================================
</basis_specs>

atom: Called for Ca                    (Z =  20)

read_vps: Pseudopotential generation method:
read_vps: ONCVPSP-3.Hamann's oncvpsp                        
Total valence charge:   10.00000

read_vps: Pseudopotential includes a core correction:
read_vps: Pseudo-core for xc-correction

xc_check: Exchange-correlation functional:
xc_check: GGA LIBXC-0116-GGA_X_PBE
xc_check: WARNING: Pseudopotential generated with GGA PBEsol functional

xc_check: Exchange-correlation functional:
xc_check: GGA LIBXC-0133-GGA_C_PBE
xc_check: WARNING: Pseudopotential generated with GGA PBEsol functional
Got Vlocal (oncv-fit) from psml data
Choosing vlocal chloc cutoff:  2.905847
qtot up to nchloc:   10.00003822
atom: Maximum radius forchloc:    2.90585
atom: Maximum radius for r*vlocal+2*Zval:    2.90585
Reading KB projs from Ca psml data
Using scalar-relativistic projectors in PSML file

PSML: Kleinman-Bylander projectors: 
   l= 0   rc=  1.479470   Ekb= 20.109694
   l= 0   rc=  1.479470   Ekb=  1.947554
   l= 1   rc=  1.479470   Ekb=  5.997917
   l= 1   rc=  1.479470   Ekb=  0.916204
   l= 2   rc=  1.876112   Ekb= -6.894596
   l= 2   rc=  1.876112   Ekb= -2.183301

PSML: Total number of  Kleinman-Bylander projectors:  18
atom: -------------------------------------------------------------------------

atom: SANKEY-TYPE ORBITALS:
atom: Selected multiple-zeta basis: split     

atom: basis set generated (by rescaling the valence charge)
atom: for an anion of charge  -0.0171

SPLIT: Orbitals with angular momentum L= 0

SPLIT: Basis orbitals for state 3s

   izeta = 1
                 lambda =    1.000000
                     rc =    5.497235
                 energy =   -3.451482
                kinetic =    1.771210
    potential(screened) =   -5.222692
       potential(ionic) =  -16.719981

SPLIT: Basis orbitals for state 4s

   izeta = 1
                 lambda =    1.000000
                     rc =    6.714365
                 energy =   -0.201773
                kinetic =    0.805328
    potential(screened) =   -1.007101
       potential(ionic) =   -7.012605

   izeta = 2
                 rmatch =    5.229125
              splitnorm =    0.688190
                 energy =    0.120661
                kinetic =    1.451228
    potential(screened) =   -1.330567
       potential(ionic) =   -8.587740

SPLIT: Orbitals with angular momentum L= 1

SPLIT: Basis orbitals for state 3p

   izeta = 1
                 lambda =    1.000000
                     rc =    7.058624
                 energy =   -2.054329
                kinetic =    3.527882
    potential(screened) =   -5.582212
       potential(ionic) =  -16.655143

SPLIT: Basis orbitals for state 4p

   izeta = 1
                 lambda =    1.000000
                     rc =    7.420534
                 energy =    0.061236
                kinetic =    1.118077
    potential(screened) =   -1.056841
       potential(ionic) =   -6.673829

SPLIT: Orbitals with angular momentum L= 2

SPLIT: Basis orbitals for state 3d

   izeta = 1
                 lambda =    1.000000
                     rc =    6.386896
                 energy =   -0.127377
                kinetic =    3.973862
    potential(screened) =   -4.101239
       potential(ionic) =  -13.072348
atom: Total number of Sankey-type orbitals: 14

atm_pop: Valence configuration (for local Pseudopot. screening):
 3s( 2.00) 4s( 2.00)                                                  
 3p( 6.00) 4p( 0.00)                                                  
 3d( 0.00)                                                            
Vna: chval, zval:   10.00000  10.00000

Vna:  Cut-off radius for the neutral-atom potential:   7.058624
comcore: Pseudo-core radius Rcore=  1.923609

atom: _________________________________________________________________________

<basis_specs>
===============================================================================
Ti                   Z=  22    Mass=  47.880        Charge= 0.14884    
Lmxo=2 Lmxkb= 2    BasisType=split      Semic=T
L=0  Nsemic=1  Cnfigmx=4
          n=1  nzeta=1  polorb=0  (3s)
            splnorm:   0.15000    
               vcte:    89.059    
               rinn:    3.2900    
               qcoe:    0.0000    
               qyuk:    0.0000    
               qwid:   0.10000E-01
                rcs:    5.7456    
            lambdas:    1.0000    
          n=2  nzeta=2  polorb=0  (4s)
            splnorm:   0.15000    
               vcte:    86.234    
               rinn:    4.4569    
               qcoe:    0.0000    
               qyuk:    0.0000    
               qwid:   0.10000E-01
                rcs:    6.1444      4.0085    
            lambdas:    1.0000      1.0000    
L=1  Nsemic=1  Cnfigmx=4
          n=1  nzeta=1  polorb=0  (3p)
            splnorm:   0.15000    
               vcte:    100.88    
               rinn:    2.7882    
               qcoe:    0.0000    
               qyuk:    0.0000    
               qwid:   0.10000E-01
                rcs:    5.6862    
            lambdas:    1.0000    
          n=2  nzeta=1  polorb=0  (4p)
            splnorm:   0.15000    
               vcte:    14.333    
               rinn:    1.5899    
               qcoe:    0.0000    
               qyuk:    0.0000    
               qwid:   0.10000E-01
                rcs:    5.2111    
            lambdas:    1.0000    
L=2  Nsemic=0  Cnfigmx=3
          n=1  nzeta=2  polorb=0  (3d)
            splnorm:   0.15000    
               vcte:    47.831    
               rinn:    5.2681    
               qcoe:    0.0000    
               qyuk:    0.0000    
               qwid:   0.10000E-01
                rcs:    6.2263      2.8933    
            lambdas:    1.0000      1.0000    
-------------------------------------------------------------------------------
L=0  Nkbl=2  erefs: 0.17977+309 0.17977+309
L=1  Nkbl=2  erefs: 0.17977+309 0.17977+309
L=2  Nkbl=1  erefs: 0.17977+309
===============================================================================
</basis_specs>

atom: Called for Ti                    (Z =  22)

read_vps: Pseudopotential generation method:
read_vps: ONCVPSP-3.Hamann's oncvpsp                        
Total valence charge:   12.00000

read_vps: Pseudopotential includes a core correction:
read_vps: Pseudo-core for xc-correction

xc_check: Exchange-correlation functional:
xc_check: GGA LIBXC-0116-GGA_X_PBE
xc_check: WARNING: Pseudopotential generated with GGA PBEsol functional

xc_check: Exchange-correlation functional:
xc_check: GGA LIBXC-0133-GGA_C_PBE
xc_check: WARNING: Pseudopotential generated with GGA PBEsol functional
Got Vlocal (oncv-fit) from psml data
Choosing vlocal chloc cutoff:  5.592561
qtot up to nchloc:   11.99995716
atom: Maximum radius forchloc:    5.59256
atom: Maximum radius for r*vlocal+2*Zval:    5.59256
Reading KB projs from Ti psml data
Using scalar-relativistic projectors in PSML file

PSML: Kleinman-Bylander projectors: 
   l= 0   rc=  1.379024   Ekb= 22.643900
   l= 0   rc=  1.379024   Ekb=  2.508948
   l= 1   rc=  1.328264   Ekb=  3.893789
   l= 1   rc=  1.328264   Ekb= -0.168537
   l= 2   rc=  1.684368   Ekb=-10.474209
   l= 2   rc=  1.684368   Ekb= -2.976755

PSML: Total number of  Kleinman-Bylander projectors:  18
atom: -------------------------------------------------------------------------

atom: SANKEY-TYPE ORBITALS:
atom: Selected multiple-zeta basis: split     

atom: basis set generated (by rescaling the valence charge)
atom: for a cation of charge   0.1488

SPLIT: Orbitals with angular momentum L= 0

SPLIT: Basis orbitals for state 3s

   izeta = 1
                 lambda =    1.000000
                     rc =    5.806269
                 energy =   -4.807176
                kinetic =    2.225320
    potential(screened) =   -7.032496
       potential(ionic) =  -22.914322

SPLIT: Basis orbitals for state 4s

   izeta = 1
                 lambda =    1.000000
                     rc =    6.258494
                 energy =   -0.364169
                kinetic =    1.090199
    potential(screened) =   -1.454369
       potential(ionic) =   -9.883604

   izeta = 2
                 rmatch =    3.990551
              splitnorm =    0.882104
                 energy =    0.454455
                kinetic =    2.882074
    potential(screened) =   -2.427619
       potential(ionic) =  -13.789783

SPLIT: Orbitals with angular momentum L= 1

SPLIT: Basis orbitals for state 3p

   izeta = 1
                 lambda =    1.000000
                     rc =    5.662909
                 energy =   -3.059619
                kinetic =    4.893659
    potential(screened) =   -7.953278
       potential(ionic) =  -23.369311

SPLIT: Basis orbitals for state 4p

   izeta = 1
                 lambda =    1.000000
                     rc =    5.253718
                 energy =    0.267494
                kinetic =    2.599335
    potential(screened) =   -2.331841
       potential(ionic) =  -11.718224

SPLIT: Orbitals with angular momentum L= 2

SPLIT: Basis orbitals for state 3d

   izeta = 1
                 lambda =    1.000000
                     rc =    6.258494
                 energy =   -0.489631
                kinetic =    6.650921
    potential(screened) =   -7.140552
       potential(ionic) =  -20.562067

   izeta = 2
                 rmatch =    2.883251
              splitnorm =    0.160457
                 energy =   -0.265279
                kinetic =    9.401367
    potential(screened) =   -9.666647
       potential(ionic) =  -24.853333
atom: Total number of Sankey-type orbitals: 19

atm_pop: Valence configuration (for local Pseudopot. screening):
 3s( 2.00) 4s( 2.00)                                                  
 3p( 6.00) 4p( 0.00)                                                  
 3d( 2.00)                                                            
Vna: chval, zval:   12.00000  12.00000

Vna:  Cut-off radius for the neutral-atom potential:   6.258494
comcore: Pseudo-core radius Rcore=  1.770734

atom: _________________________________________________________________________

<basis_specs>
===============================================================================
O                    Z=   8    Mass=  16.000        Charge=-0.30180    
Lmxo=2 Lmxkb= 2    BasisType=split      Semic=F
L=0  Nsemic=0  Cnfigmx=2
          n=1  nzeta=2  polorb=0  (2s)
            splnorm:   0.15000    
               vcte:    34.616    
               rinn:    3.2807    
               qcoe:    0.0000    
               qyuk:    0.0000    
               qwid:   0.10000E-01
                rcs:    5.9969      2.8589    
            lambdas:    1.0000      1.0000    
L=1  Nsemic=0  Cnfigmx=2
          n=1  nzeta=2  polorb=0  (2p)
            splnorm:   0.15000    
               vcte:    36.286    
               rinn:    3.3012    
               qcoe:    0.0000    
               qyuk:    0.0000    
               qwid:   0.10000E-01
                rcs:    5.8991      3.8159    
            lambdas:    1.0000      1.0000    
L=2  Nsemic=0  Cnfigmx=3
          n=1  nzeta=1  polorb=0  (3d)
            splnorm:   0.15000    
               vcte:    25.598    
               rinn:   0.91089    
               qcoe:    0.0000    
               qyuk:    0.0000    
               qwid:   0.10000E-01
                rcs:    4.7048    
            lambdas:    1.0000    
-------------------------------------------------------------------------------
L=0  Nkbl=1  erefs: 0.17977+309
L=1  Nkbl=1  erefs: 0.17977+309
L=2  Nkbl=1  erefs: 0.17977+309
===============================================================================
</basis_specs>

atom: Called for O                     (Z =   8)

read_vps: Pseudopotential generation method:
read_vps: ONCVPSP-3.Hamann's oncvpsp                        
Total valence charge:    6.00000

read_vps: Pseudopotential includes a core correction:
read_vps: Pseudo-core for xc-correction

xc_check: Exchange-correlation functional:
xc_check: GGA LIBXC-0116-GGA_X_PBE
xc_check: WARNING: Pseudopotential generated with GGA PBEsol functional

xc_check: Exchange-correlation functional:
xc_check: GGA LIBXC-0133-GGA_C_PBE
xc_check: WARNING: Pseudopotential generated with GGA PBEsol functional
Got Vlocal (oncv-fit) from psml data
Choosing vlocal chloc cutoff:  6.022527
qtot up to nchloc:    6.00000891
atom: Maximum radius forchloc:    6.02253
atom: Maximum radius for r*vlocal+2*Zval:    6.02253
Reading KB projs from O psml data
Using scalar-relativistic projectors in PSML file

PSML: Kleinman-Bylander projectors: 
   l= 0   rc=  1.262145   Ekb= 14.461089
   l= 0   rc=  1.278025   Ekb=  1.986899
   l= 1   rc=  1.377587   Ekb=-10.498444
   l= 1   rc=  1.377587   Ekb= -2.586474
   l= 2   rc=  1.278025   Ekb= -2.671669

PSML: Total number of  Kleinman-Bylander projectors:  13
atom: -------------------------------------------------------------------------

atom: SANKEY-TYPE ORBITALS:
atom: Selected multiple-zeta basis: split     

atom: basis set generated (by rescaling the valence charge)
atom: for an anion of charge  -0.3018

SPLIT: Orbitals with angular momentum L= 0

SPLIT: Basis orbitals for state 2s

   izeta = 1
                 lambda =    1.000000
                     rc =    6.022527
                 energy =   -1.746581
                kinetic =    1.442189
    potential(screened) =   -3.188769
       potential(ionic) =  -10.923497

   izeta = 2
                 rmatch =    2.844677
              splitnorm =    0.112361
                 energy =   -1.616503
                kinetic =    2.117039
    potential(screened) =   -3.733542
       potential(ionic) =  -12.035817

SPLIT: Orbitals with angular momentum L= 1

SPLIT: Basis orbitals for state 2p

   izeta = 1
                 lambda =    1.000000
                     rc =    5.873823
                 energy =   -0.650840
                kinetic =    4.166405
    potential(screened) =   -4.817245
       potential(ionic) =  -12.188808

   izeta = 2
                 rmatch =    3.840021
              splitnorm =    0.045680
                 energy =   -0.624774
* WARNING: effective split_norm is quite small. Orbitals will be very similar.
                kinetic =    5.041454
    potential(screened) =   -5.666228
       potential(ionic) =  -13.532859

SPLIT: Orbitals with angular momentum L= 2

SPLIT: Basis orbitals for state 3d

   izeta = 1
                 lambda =    1.000000
                     rc =    4.690281
                 energy =    1.660187
                kinetic =    2.767368
    potential(screened) =   -1.107181
       potential(ionic) =   -6.499046
atom: Total number of Sankey-type orbitals: 13

atm_pop: Valence configuration (for local Pseudopot. screening):
 2s( 2.00)                                                            
 2p( 4.00)                                                            
 3d( 0.00)                                                            
Vna: chval, zval:    6.00000   6.00000

Vna:  Cut-off radius for the neutral-atom potential:   6.022527
comcore: Pseudo-core radius Rcore=  1.360471

atom: _________________________________________________________________________

prinput: Basis input 
* WARNING: This information might be incomplete!!!
----------------------------------------------------------

PAO.BasisType split     

%block ChemicalSpeciesLabel
    1   20 Ca                      # Species index, atomic number, species label
    2   22 Ti                      # Species index, atomic number, species label
    3    8 O                       # Species index, atomic number, species label
%endblock ChemicalSpeciesLabel

%block PAO.Basis                 # Define Basis set
# WARNING: This information might be incomplete!!!
Ca                    5  -0.017            # Label, l-shells, ionic net charge
 n=3   0   1                         # n, l, Nzeta 
   5.497   
   1.000   
 n=4   0   2                         # n, l, Nzeta 
   6.714      5.229   
   1.000      1.000   
 n=3   1   1                         # n, l, Nzeta 
   7.059   
   1.000   
 n=4   1   1                         # n, l, Nzeta 
   7.421   
   1.000   
 n=3   2   1                         # n, l, Nzeta 
   6.387   
   1.000   
Ti                    5   0.149            # Label, l-shells, ionic net charge
 n=3   0   1                         # n, l, Nzeta 
   5.806   
   1.000   
 n=4   0   2                         # n, l, Nzeta 
   6.258      3.991   
   1.000      1.000   
 n=3   1   1                         # n, l, Nzeta 
   5.663   
   1.000   
 n=4   1   1                         # n, l, Nzeta 
   5.254   
   1.000   
 n=3   2   2                         # n, l, Nzeta 
   6.258      2.883   
   1.000      1.000   
O                     3  -0.302            # Label, l-shells, ionic net charge
 n=2   0   2                         # n, l, Nzeta 
   6.023      2.845   
   1.000      1.000   
 n=2   1   2                         # n, l, Nzeta 
   5.874      3.840   
   1.000      1.000   
 n=3   2   1                         # n, l, Nzeta 
   4.690   
   1.000   
%endblock PAO.Basis

prinput: ----------------------------------------------------------------------

 CH_OVERLAP: Z1=   10.006961951150499       ZVAL1=   10.000000000000000     
 CH_OVERLAP: Z2=   10.006961951150499       ZVAL2=   10.000000000000000     
 CH_OVERLAP: Z1=   11.995005091130285       ZVAL1=   12.000000000000000     
 CH_OVERLAP: Z2=   11.995005091130285       ZVAL2=   12.000000000000000     
 CH_OVERLAP: Z1=   11.995005091130285       ZVAL1=   12.000000000000000     
 CH_OVERLAP: Z2=   10.006961951150499       ZVAL2=   10.000000000000000     
 CH_OVERLAP: Z1=   6.0106029084246302       ZVAL1=   6.0000000000000000     
 CH_OVERLAP: Z2=   6.0106029084246302       ZVAL2=   6.0000000000000000     
 CH_OVERLAP: Z1=   6.0106029084246302       ZVAL1=   6.0000000000000000     
 CH_OVERLAP: Z2=   11.995005091130285       ZVAL2=   12.000000000000000     
 CH_OVERLAP: Z1=   6.0106029084246302       ZVAL1=   6.0000000000000000     
 CH_OVERLAP: Z2=   10.006961951150499       ZVAL2=   10.000000000000000     
coor:   Atomic-coordinates input format  =     Fractional

siesta: Atomic coordinates (Bohr) and species
siesta:      0.00000   0.00000   0.00000  1        1
siesta:      3.82041   3.82041   3.82041  2        2
siesta:      0.00000   3.82041   3.82041  3        3
siesta:      3.82041   0.00000   3.82041  3        4
siesta:      3.82041   3.82041   0.00000  3        5

siesta: System type = bulk      

initatomlists: Number of atoms, orbitals, and projectors:      5    72    75

siesta: ******************** Simulation parameters ****************************
siesta:
siesta: The following are some of the parameters of the simulation.
siesta: A complete list of the parameters used, including default values,
siesta: can be found in file out.fdf
siesta:
redata: Spin configuration                          = none
redata: Number of spin components                   = 1
redata: Time-Reversal Symmetry                      = T
redata: Spin-spiral                                 = F
redata: Long output                                 =   F
redata: Number of Atomic Species                    =        3
redata: Charge density info will appear in .RHO file
redata: Write Mulliken Pop.                         = NO
redata: Matel table size (NRTAB)                    =     1024
redata: Mesh Cutoff                                 =   600.0000 Ry
redata: Net charge of the system                    =     0.0000 |e|
redata: Min. number of SCF Iter                     =        0
redata: Max. number of SCF Iter                     =      100
redata: SCF convergence failure will abort job
redata: SCF mix quantity                            = Hamiltonian
redata: Mix DM or H after convergence               =   F
redata: Recompute H after scf cycle                 =   F
redata: Mix DM in first SCF step                    =   T
redata: Write Pulay info on disk                    =   F
redata: New DM Mixing Weight                        =     0.2500
redata: New DM Occupancy tolerance                  = 0.000000000001
redata: No kicks to SCF
redata: DM Mixing Weight for Kicks                  =     0.5000
redata: Require Harris convergence for SCF          =   F
redata: Harris energy tolerance for SCF             =     0.000100 eV
redata: Require DM convergence for SCF              =   T
redata: DM tolerance for SCF                        =     0.000100
redata: Require EDM convergence for SCF             =   F
redata: EDM tolerance for SCF                       =     0.001000 eV
redata: Require H convergence for SCF               =   T
redata: Hamiltonian tolerance for SCF               =     0.001000 eV
redata: Require (free) Energy convergence for SCF   =   F
redata: (free) Energy tolerance for SCF             =     0.000100 eV
redata: Using Saved Data (generic)                  =   F
redata: Use continuation files for DM               =   T
redata: Neglect nonoverlap interactions             =   F
redata: Method of Calculation                       = Diagonalization
redata: Electronic Temperature                      =   870.3328 K
redata: Fix the spin of the system                  =   F
redata: Max. number of TDED Iter                    =        1
redata: Number of TDED substeps                     =        3
redata: Dynamics option                             = CG coord. optimization
redata: Variable cell                               =   T
redata: Use continuation files for CG               =   F
redata: Max atomic displ per move                   =     0.1588 Ang
redata: Maximum number of CG moves                  =       20
redata: Force tolerance                             =     0.0100 eV/Ang
redata: Stress tolerance                            =     0.0160 GPa
mix.SCF: Pulay mixing                            = Pulay
mix.SCF:    Variant                              = stable
mix.SCF:    History steps                        = 3
mix.SCF:    Linear mixing weight                 =     0.250000
mix.SCF:    Mixing weight                        =     0.250000
mix.SCF:    SVD condition                        = 0.1000E-07
redata: ***********************************************************************

%block SCF.Mixers
  Pulay
%endblock SCF.Mixers

%block SCF.Mixer.Pulay
  # Mixing method
  method pulay
  variant stable

  # Mixing options
  weight 0.2500
  weight.linear 0.2500
  history 3
%endblock SCF.Mixer.Pulay

DM_history_depth set to one: no extrapolation allowed by default for geometry relaxation
Size of DM history Fstack: 1
Total number of electrons:    40.000000
Total ionic charge:    40.000000
 Kpoints in:          108 . Kpoints trimmed:          108

siesta: k-grid: Number of k-points =       108
siesta: k-points from Monkhorst-Pack grid
siesta: k-cutoff (effective) =    12.130 Ang
siesta: k-point supercell and displacements
siesta: k-grid:    6   0   0      0.500
siesta: k-grid:    0   6   0      0.500
siesta: k-grid:    0   0   6      0.500
 Kpoints in:          108 . Kpoints trimmed:          108

siesta: PDOS k-grid: Number of k-points =       108
siesta: PDOS k-points from Monkhorst-Pack grid
siesta: PDOS k-cutoff (effective) =     0.000 Ang
siesta: PDOS k-point supercell and displacements
siesta: k-grid:    6   0   0      0.500
siesta: k-grid:    0   6   0      0.500
siesta: k-grid:    0   0   6      0.500

diag: Algorithm                                     = D&C
diag: Used triangular part                          = Lower
diag: Absolute tolerance                            =  0.100E-15
diag: Orthogonalization factor                      =  0.100E-05
diag: Memory factor                                 =  1.0000
Using LatticeConstant from fdf file for BandLinesScale:    7.640814 Bohr
Beware any cell changes by the end of the run
Using LatticeConstant from fdf file for BandLinesScale:    7.640814 Bohr
Beware any cell changes by the end of the run

superc: Internal auxiliary supercell:     7 x     7 x     7  =     343
superc: Number of atoms, orbitals, and projectors:   1715  24696  25725


ts: **************************************************************
ts: Save H and S matrices                           =    F
ts: Save DM and EDM matrices                        =    F
ts: Fix Hartree potential                           =    F
ts: Only save the overlap matrix S                  =    F
ts: **************************************************************

************************ Begin: TS CHECKS AND WARNINGS ************************
************************ End: TS CHECKS AND WARNINGS **************************


                     ====================================
                        Begin CG opt. move =      0
                     ====================================

outcoor: Atomic coordinates (fractional):                   
    0.00000000    0.00000000    0.00000000   1       1  Ca
    0.50000000    0.50000000    0.50000000   2       2  Ti
    0.00000000    0.50000000    0.50000000   3       3  O
    0.50000000    0.00000000    0.50000000   3       4  O
    0.50000000    0.50000000    0.00000000   3       5  O

superc: Internal auxiliary supercell:     7 x     7 x     7  =     343
superc: Number of atoms, orbitals, and projectors:   1715  24696  25725

outcell: Unit cell vectors (Ang):
        4.043343    0.000000    0.000000
        0.000000    4.043343    0.000000
        0.000000    0.000000    4.043343

outcell: Cell vector modules (Ang)   :    4.043343    4.043343    4.043343
outcell: Cell angles (23,13,12) (deg):     90.0000     90.0000     90.0000
outcell: Cell volume (Ang**3)        :     66.1031
<dSpData1D:S at geom step 0
  <sparsity:sparsity for geom step 0
    nrows_g=72 nrows=72 sparsity=16.3187 nnzs=84596, refcount: 7>
  <dData1D:(new from dSpData1D) n=84596, refcount: 1>
refcount: 1>
new_DM -- step:     1
Initializing Density Matrix...

Attempting to read DM from file... Failed...
DM filled with atomic data:
<dSpData2D:DM initialized from atoms
  <sparsity:sparsity for geom step 0
    nrows_g=72 nrows=72 sparsity=16.3187 nnzs=84596, refcount: 8>
  <dData2D:DM n=84596 m=1, refcount: 1>
refcount: 1>
No. of atoms with KB's overlaping orbs in proc 0. Max # of overlaps:      43     334
New grid distribution:   1
           1       1:   30    1:   30    1:   30

InitMesh: MESH =    60 x    60 x    60 =      216000
InitMesh: (bp) =    30 x    30 x    30 =       27000
InitMesh: Mesh cutoff (required, used) =   600.000   608.587 Ry
ExtMesh (bp) on 0 =   150 x   150 x   150 =     3375000
PhiOnMesh: Number of (b)points on node 0 =                27000
PhiOnMesh: nlist on node 0 =              3098840

stepf: Fermi-Dirac step function

siesta: Program's energy decomposition (eV):
siesta: Ebs     =      -796.168192
siesta: Eions   =      6014.726872
siesta: Ena     =      1001.501237
siesta: Ekin    =      2005.930534
siesta: Enl     =      -176.024761
siesta: Eso     =         0.000000
siesta: Eldau   =         0.000000
siesta: DEna    =       -71.270519
siesta: DUscf   =        67.482600
siesta: DUext   =         0.000000
siesta: Enegf   =         0.000000
siesta: Exc     =      -795.848186
siesta: eta*DQ  =         0.000000
siesta: Emadel  =         0.000000
siesta: Emeta   =         0.000000
siesta: Emolmec =         0.000000
siesta: Ekinion =         0.000000
siesta: Eharris =     -3899.190845
siesta: Etot    =     -3982.955967
siesta: FreeEng =     -3982.955967

        iscf     Eharris(eV)        E_KS(eV)     FreeEng(eV)     dDmax    Ef(eV) dHmax(eV)
   scf:    1    -3899.190845    -3982.955967    -3982.955967  1.994009 -4.283435 20.701164
timer: Routine,Calls,Time,% = IterSCF        1      18.333  14.62
   scf:    2    -4037.899904    -4016.205404    -4016.205404  0.636392 -5.920241  6.823179
   scf:    3    -4006.369284    -4017.109143    -4017.112607  0.388977 -5.619131  8.499975
   scf:    4    -4020.105070    -4018.720045    -4018.720733  0.039594 -5.590337  6.146721
   scf:    5    -4021.082009    -4020.325480    -4020.325491  0.079628 -5.484728  1.497342
   scf:    6    -4020.437976    -4020.407937    -4020.407940  0.021512 -5.421185  0.240744
   scf:    7    -4020.404932    -4020.408438    -4020.408440  0.011644 -5.371208  0.185121
   scf:    8    -4020.409981    -4020.409629    -4020.409631  0.002380 -5.382345  0.013055
   scf:    9    -4020.409658    -4020.409644    -4020.409647  0.001172 -5.381869  0.004895
   scf:   10    -4020.409656    -4020.409651    -4020.409653  0.001677 -5.380760  0.000613
   scf:   11    -4020.409651    -4020.409651    -4020.409653  0.000109 -5.380734  0.000531
   scf:   12    -4020.409651    -4020.409651    -4020.409653  0.000068 -5.380717  0.000298

SCF Convergence by DM+H criterion
max |DM_out - DM_in|         :     0.0000676748
max |H_out - H_in|      (eV) :     0.0002984504
SCF cycle converged after 12 iterations

Using DM_out to compute the final energy and forces
No. of atoms with KB's overlaping orbs in proc 0. Max # of overlaps:      43     334

siesta: E_KS(eV) =            -4020.4097

siesta: E_KS - E_eggbox =     -4020.4097

siesta: Atomic forces (eV/Ang):
----------------------------------------
   Tot   -0.000000    0.000000    0.000000
----------------------------------------
   Max    0.000000
   Res    0.000000    sqrt( Sum f_i^2 / 3N )
----------------------------------------
   Max    0.000000    constrained

Stress-tensor-Voigt (kbar):      207.12      207.12      207.12        0.00       -0.00       -0.00
(Free)E + p*V (eV/cell)    -4028.9548
Target enthalpy (eV/cell)    -4020.4097

siesta: Stress tensor (static) (eV/Ang**3):
         0.129270   -0.000000    0.000000
         0.000000    0.129270   -0.000000
        -0.000000   -0.000000    0.129270

siesta: Pressure (static):       -207.11596883  kBar

siesta: Stress tensor (total) (eV/Ang**3):
         0.129270   -0.000000    0.000000
         0.000000    0.129270   -0.000000
        -0.000000   -0.000000    0.129270

siesta: Pressure (total):       -207.11596883  kBar

cgvc: No target stress found, assuming hydrostatic MD.TargetPressure.

cgvc: Target stress (kBar)
cgvc:        -0.000       0.000       0.000
cgvc:         0.000      -0.000       0.000
cgvc:         0.000       0.000      -0.000

                     ====================================
                        Begin CG opt. move =      1
                     ====================================

outcoor: Atomic coordinates (fractional):                   
   -0.00000000    0.00000000   -0.00000000   1       1  Ca
    0.50000000    0.50000000    0.50000000   2       2  Ti
    0.00000000    0.50000000    0.50000000   3       3  O
    0.50000000    0.00000000    0.50000000   3       4  O
    0.50000000    0.50000000    0.00000000   3       5  O
 Kpoints in:          108 . Kpoints trimmed:          108

siesta: k-grid: Number of k-points =       108
siesta: k-points from Monkhorst-Pack grid
siesta: k-cutoff (effective) =    11.908 Ang
siesta: k-point supercell and displacements
siesta: k-grid:    6   0   0      0.500
siesta: k-grid:    0   6   0      0.500
siesta: k-grid:    0   0   6      0.500

superc: Internal auxiliary supercell:     7 x     7 x     7  =     343
superc: Number of atoms, orbitals, and projectors:   1715  24696  25725

outcell: Unit cell vectors (Ang):
        3.969224    0.000000    0.000000
        0.000000    3.969224    0.000000
        0.000000    0.000000    3.969224

outcell: Cell vector modules (Ang)   :    3.969224    3.969224    3.969224
outcell: Cell angles (23,13,12) (deg):     90.0000     90.0000     90.0000
outcell: Cell volume (Ang**3)        :     62.5341
<dSpData1D:S at geom step 1
  <sparsity:sparsity for geom step 1
    nrows_g=72 nrows=72 sparsity=16.4414 nnzs=85232, refcount: 7>
  <dData1D:(new from dSpData1D) n=85232, refcount: 1>
refcount: 1>
new_DM -- step:     2
Re-using DM from previous geometries...
Number of DMs in history: 1
 DM extrapolation coefficients: 
1   1.00000
New DM after history re-use:
<dSpData2D:SpM extrapolated using coords
  <sparsity:sparsity for geom step 1
    nrows_g=72 nrows=72 sparsity=16.4414 nnzs=85232, refcount: 8>
  <dData2D:(temp array for extrapolation) n=85232 m=1, refcount: 1>
refcount: 1>
Note: For starting DM, Qtot, Tr[D*S] =         40.00000000         40.07309337
No. of atoms with KB's overlaping orbs in proc 0. Max # of overlaps:      43     334
New grid distribution:   1
           1       1:   30    1:   30    1:   30

InitMesh: MESH =    60 x    60 x    60 =      216000
InitMesh: (bp) =    30 x    30 x    30 =       27000
InitMesh: Mesh cutoff (required, used) =   600.000   631.529 Ry
ExtMesh (bp) on 0 =   150 x   150 x   150 =     3375000
PhiOnMesh: Number of (b)points on node 0 =                27000
PhiOnMesh: nlist on node 0 =              3272221

        iscf     Eharris(eV)        E_KS(eV)     FreeEng(eV)     dDmax    Ef(eV) dHmax(eV)
   scf:    1    -4021.032361    -4020.790835    -4020.790837  0.078771 -5.570179  0.452889
   scf:    2    -4020.722748    -4020.778480    -4020.778482  0.098317 -5.277994  0.555311
   scf:    3    -4020.813286    -4020.804663    -4020.804664  0.053328 -5.435565  0.097712
   scf:    4    -4020.804920    -4020.804815    -4020.804816  0.002409 -5.433828  0.063241
   scf:    5    -4020.804925    -4020.804874    -4020.804875  0.001571 -5.432516  0.032017
   scf:    6    -4020.804912    -4020.804896    -4020.804897  0.001884 -5.430768  0.001647
   scf:    7    -4020.804897    -4020.804897    -4020.804898  0.000055 -5.430640  0.000822

SCF Convergence by DM+H criterion
max |DM_out - DM_in|         :     0.0000551850
max |H_out - H_in|      (eV) :     0.0008218320
SCF cycle converged after 7 iterations

Using DM_out to compute the final energy and forces
No. of atoms with KB's overlaping orbs in proc 0. Max # of overlaps:      43     334

siesta: E_KS(eV) =            -4020.8049

siesta: Atomic forces (eV/Ang):
----------------------------------------
   Tot    0.000000    0.000000    0.000000
----------------------------------------
   Max    0.000000
   Res    0.000000    sqrt( Sum f_i^2 / 3N )
----------------------------------------
   Max    0.000000    constrained

Stress-tensor-Voigt (kbar):      144.79      144.79      144.79        0.00        0.00        0.00
(Free)E + p*V (eV/cell)    -4026.4562
Target enthalpy (eV/cell)    -4020.8049

siesta: Stress tensor (static) (eV/Ang**3):
         0.090371    0.000000    0.000000
         0.000000    0.090371    0.000000
         0.000000    0.000000    0.090371

siesta: Pressure (static):       -144.79193849  kBar

siesta: Stress tensor (total) (eV/Ang**3):
         0.090371    0.000000    0.000000
         0.000000    0.090371    0.000000
         0.000000    0.000000    0.090371

siesta: Pressure (total):       -144.79193849  kBar

                     ====================================
                        Begin CG opt. move =      2
                     ====================================

outcoor: Atomic coordinates (fractional):                   
   -0.00000000    0.00000000   -0.00000000   1       1  Ca
    0.50000000    0.50000000    0.50000000   2       2  Ti
    0.00000000    0.50000000    0.50000000   3       3  O
    0.50000000    0.00000000    0.50000000   3       4  O
    0.50000000    0.50000000    0.00000000   3       5  O
 Kpoints in:          108 . Kpoints trimmed:          108

siesta: k-grid: Number of k-points =       108
siesta: k-points from Monkhorst-Pack grid
siesta: k-cutoff (effective) =    11.552 Ang
siesta: k-point supercell and displacements
siesta: k-grid:    6   0   0      0.500
siesta: k-grid:    0   6   0      0.500
siesta: k-grid:    0   0   6      0.500

superc: Internal auxiliary supercell:     7 x     7 x     7  =     343
superc: Number of atoms, orbitals, and projectors:   1715  24696  25725

outcell: Unit cell vectors (Ang):
        3.850633    0.000000    0.000000
        0.000000    3.850633    0.000000
        0.000000    0.000000    3.850633

outcell: Cell vector modules (Ang)   :    3.850633    3.850633    3.850633
outcell: Cell angles (23,13,12) (deg):     90.0000     90.0000     90.0000
outcell: Cell volume (Ang**3)        :     57.0948
<dSpData1D:S at geom step 2
  <sparsity:sparsity for geom step 2
    nrows_g=72 nrows=72 sparsity=17.5779 nnzs=91124, refcount: 7>
  <dData1D:(new from dSpData1D) n=91124, refcount: 1>
refcount: 1>
new_DM -- step:     3
Re-using DM from previous geometries...
Number of DMs in history: 1
 DM extrapolation coefficients: 
1   1.00000
New DM after history re-use:
<dSpData2D:SpM extrapolated using coords
  <sparsity:sparsity for geom step 2
    nrows_g=72 nrows=72 sparsity=17.5779 nnzs=91124, refcount: 8>
  <dData2D:(temp array for extrapolation) n=91124 m=1, refcount: 1>
refcount: 1>
Note: For starting DM, Qtot, Tr[D*S] =         40.00000000         40.07525400
No. of atoms with KB's overlaping orbs in proc 0. Max # of overlaps:      52     340
New grid distribution:   1
           1       1:   30    1:   30    1:   30

InitMesh: MESH =    60 x    60 x    60 =      216000
InitMesh: (bp) =    30 x    30 x    30 =       27000
InitMesh: Mesh cutoff (required, used) =   600.000   671.027 Ry
ExtMesh (bp) on 0 =   154 x   154 x   154 =     3652264
PhiOnMesh: Number of (b)points on node 0 =                27000
PhiOnMesh: nlist on node 0 =              3580037

        iscf     Eharris(eV)        E_KS(eV)     FreeEng(eV)     dDmax    Ef(eV) dHmax(eV)
   scf:    1    -4020.531886    -4021.029540    -4021.029540  0.155264 -5.756169  0.662612
   scf:    2    -4020.784743    -4020.978176    -4020.978177  0.168335 -5.285967  1.002618
   scf:    3    -4021.095144    -4021.068205    -4021.068205  0.099893 -5.539963  0.136175
   scf:    4    -4021.068898    -4021.068593    -4021.068594  0.005339 -5.530794  0.088535
   scf:    5    -4021.068882    -4021.068759    -4021.068759  0.004201 -5.526782  0.004737
   scf:    6    -4021.068762    -4021.068761    -4021.068761  0.000504 -5.525966  0.001174
   scf:    7    -4021.068761    -4021.068761    -4021.068761  0.000053 -5.525981  0.000732

SCF Convergence by DM+H criterion
max |DM_out - DM_in|         :     0.0000527447
max |H_out - H_in|      (eV) :     0.0007319017
SCF cycle converged after 7 iterations

Using DM_out to compute the final energy and forces
No. of atoms with KB's overlaping orbs in proc 0. Max # of overlaps:      52     340

siesta: E_KS(eV) =            -4021.0688

siesta: Atomic forces (eV/Ang):
----------------------------------------
   Tot    0.000000    0.000000    0.000000
----------------------------------------
   Max    0.000000
   Res    0.000000    sqrt( Sum f_i^2 / 3N )
----------------------------------------
   Max    0.000000    constrained

Stress-tensor-Voigt (kbar):        0.02        0.02        0.02        0.00       -0.00        0.00
(Free)E + p*V (eV/cell)    -4021.0695
Target enthalpy (eV/cell)    -4021.0688

siesta: Stress tensor (static) (eV/Ang**3):
         0.000012    0.000000    0.000000
         0.000000    0.000012   -0.000000
         0.000000   -0.000000    0.000012

siesta: Pressure (static):         -0.01973884  kBar

siesta: Stress tensor (total) (eV/Ang**3):
         0.000012    0.000000    0.000000
         0.000000    0.000012   -0.000000
         0.000000   -0.000000    0.000012

siesta: Pressure (total):         -0.01973884  kBar

outcoor: Relaxed atomic coordinates (fractional):           
   -0.00000000    0.00000000   -0.00000000   1       1  Ca
    0.50000000    0.50000000    0.50000000   2       2  Ti
    0.00000000    0.50000000    0.50000000   3       3  O
    0.50000000    0.00000000    0.50000000   3       4  O
    0.50000000    0.50000000    0.00000000   3       5  O

outcell: Unit cell vectors (Ang):
        3.850633    0.000000    0.000000
        0.000000    3.850633    0.000000
        0.000000    0.000000    3.850633

outcell: Cell vector modules (Ang)   :    3.850633    3.850633    3.850633
outcell: Cell angles (23,13,12) (deg):     90.0000     90.0000     90.0000
outcell: Cell volume (Ang**3)        :     57.0948
Computing bands...

siesta: PDOS info
siesta: E1 -- E2, sigma [eV], nhist:  -70.000 --   20.000    0.150 3000

siesta: Program's energy decomposition (eV):
siesta: Ebs     =      -914.889486
siesta: Eions   =      6014.726872
siesta: Ena     =       995.241046
siesta: Ekin    =      1902.047038
siesta: Enl     =      -113.806474
siesta: Eso     =         0.000000
siesta: Eldau   =         0.000000
siesta: DEna    =       -24.984256
siesta: DUscf   =         7.459804
siesta: DUext   =         0.000000
siesta: Enegf   =         0.000000
siesta: Exc     =      -772.299047
siesta: eta*DQ  =         0.000000
siesta: Emadel  =         0.000000
siesta: Emeta   =         0.000000
siesta: Emolmec =         0.000000
siesta: Ekinion =         0.000000
siesta: Eharris =     -4021.068761
siesta: Etot    =     -4021.068761
siesta: FreeEng =     -4021.068761

siesta: Final energy (eV):
siesta:  Band Struct. =    -914.889486
siesta:       Kinetic =    1902.047038
siesta:       Hartree =     875.845342
siesta:       Eldau   =       0.000000
siesta:       Eso     =       0.000000
siesta:    Ext. field =       0.000000
siesta:       Enegf   =       0.000000
siesta:   Exch.-corr. =    -772.299047
siesta:  Ion-electron =   -3733.742857
siesta:       Ion-ion =   -2292.919238
siesta:       Ekinion =       0.000000
siesta:         Total =   -4021.068761
siesta:         Fermi =      -5.525981

siesta: Stress tensor (static) (eV/Ang**3):
siesta:     0.000012    0.000000    0.000000
siesta:     0.000000    0.000012   -0.000000
siesta:     0.000000   -0.000000    0.000012

siesta: Constrained stress tensor (static) (eV/Ang**3):
siesta:     0.000012    0.000000    0.000000
siesta:     0.000000    0.000012   -0.000000
siesta:     0.000000   -0.000000    0.000012

siesta: Cell volume =         57.094759 Ang**3

siesta: Pressure (static):
siesta:                Solid            Molecule  Units
siesta:          -0.00000013         -0.00000013  Ry/Bohr**3
siesta:          -0.00001232         -0.00001232  eV/Ang**3
siesta:          -0.01973884         -0.01973885  kBar
(Free)E+ p_basis*V_orbitals  =       -4017.547498
(Free)Eharris+ p_basis*V_orbitals  =       -4017.547499

timer: Elapsed wall time (sec) =     700.473
timer: CPU execution times (sec):

Routine            Calls   Time/call    Tot.time        %
siesta                 1     558.350     558.350   100.00
Setup                  1       0.846       0.846     0.15
bands                  3       2.201       6.602     1.18
KSV_init               1       0.000       0.000     0.00
IterGeom               3     181.123     543.369    97.32
state_init             3       4.940      14.820     2.65
hsparse                3       0.083       0.249     0.04
overlap                3       4.731      14.194     2.54
Setup_H0               3      39.316     117.949    21.12
naefs                  6       0.002       0.013     0.00
MolMec                 6       0.000       0.000     0.00
kinefsm                6       2.422      14.534     2.60
nlefsm                 6      11.586      69.515    12.45
DHSCF_Init             3      11.838      35.515     6.36
DHSCF1                 3       0.492       1.475     0.26
INITMESH               3       0.000       0.000     0.00
DHSCF2                 3      11.346      34.039     6.10
REMESH                 3       2.430       7.289     1.31
REORD                109       0.001       0.077     0.01
PHION                  3       7.942      23.825     4.27
COMM_BSC              73       0.001       0.054     0.01
POISON                35       0.027       0.929     0.17
fft                   70       0.010       0.674     0.12
IterSCF               26      13.114     340.975    61.07
setup_H               29       8.044     233.264    41.78
DHSCF                 32       9.407     301.023    53.91
DHSCF3                32       8.042     257.329    46.09
rhoofd                32       3.945     126.254    22.61
CellXC                32       0.790      25.281     4.53
gridxc@cellXC         32       0.790      25.280     4.53
vmat                  32       3.272     104.700    18.75
compute_dm            26       4.137     107.574    19.27
diagon                26       4.122     107.177    19.20
c-eigval            3664       0.010      37.409     6.70
c-buildHS           3664       0.008      29.694     5.32
cdiag               6580       0.004      23.059     4.13
cdiag1              6580       0.000       1.807     0.32
cdiag2              6580       0.001       4.967     0.89
cdiag3              6580       0.002      15.238     2.73
c-eigvec            2808       0.014      40.196     7.20
cdiag4              2916       0.000       0.814     0.15
c-buildD            2808       0.013      35.951     6.44
MIXER                 23       0.003       0.061     0.01
PostSCF                3      23.206      69.619    12.47
DHSCF4                 3      14.564      43.693     7.83
dfscf                  3      13.603      40.810     7.31
overfsm                3       0.067       0.201     0.04
state_analysis         3       0.001       0.002     0.00
siesta_move            3       0.001       0.002     0.00
Analysis               1      14.125      14.125     2.53
pdos                   1       7.506       7.506     1.34
optical                1       0.000       0.000     0.00
  

>> End of run:   8-APR-2020  11:03:23
Job completed
