<preamble>

<basis_specs>
===============================================================================
O                    Z=   8    Mass=  16.000        Charge=-0.30180    
Lmxo=2 Lmxkb= 2    BasisType=split      Semic=F
L=0  Nsemic=0  Cnfigmx=2
          n=1  nzeta=2  polorb=0  (2s)
            splnorm:   0.15000    
               vcte:    34.616    
               rinn:    3.2807    
               qcoe:    0.0000    
               qyuk:    0.0000    
               qwid:   0.10000E-01
                rcs:    6.0225      2.8447    
            lambdas:    1.0000      1.0000    
L=1  Nsemic=0  Cnfigmx=2
          n=1  nzeta=2  polorb=0  (2p)
            splnorm:   0.15000    
               vcte:    36.286    
               rinn:    3.3012    
               qcoe:    0.0000    
               qyuk:    0.0000    
               qwid:   0.10000E-01
                rcs:    5.8738      3.8400    
            lambdas:    1.0000      1.0000    
L=2  Nsemic=0  Cnfigmx=3
          n=1  nzeta=1  polorb=0  (3d)
            splnorm:   0.15000    
               vcte:    25.598    
               rinn:   0.91089    
               qcoe:    0.0000    
               qyuk:    0.0000    
               qwid:   0.10000E-01
                rcs:    4.6903    
            lambdas:    1.0000    
-------------------------------------------------------------------------------
L=0  Nkbl=1  erefs: 0.17977+309
L=1  Nkbl=1  erefs: 0.17977+309
L=2  Nkbl=1  erefs: 0.17977+309
===============================================================================
</basis_specs>

<pseudopotential_header>
 O  ps nrl pcec
 ONCVPSP-3.2018-03-01Hamann's oncvpsp                        
 2s 2.00  r= 1.26/2p 4.00  r= 1.36/3d 0.00  r= 1.26/                   
</pseudopotential_header>
</preamble>
O                             # Symbol
O                             # Label
    8                         # Atomic number
     6.00000000000                             # Valence charge
     16.0000000000        # Mass 
     48.1149463796        # Self energy 
   2   5                      # Lmax for basis, no. of nl orbitals 
   2   5                      # Lmax for projectors, no. of nl KB projectors
# PAOs:__________________________
  0  2  1  0  2.000000   #orbital l, n, z, is_polarized, population
 500    0.1206919327127308E-01     6.022527442365269     # npts, delta, cutoff
     0.000000000000000         1.221514827795774    
    0.1206919327127308E-01     1.221629891823677    
    0.2413838654254617E-01     1.221988571334407    
    0.3620757981381925E-01     1.222584332138777    
    0.4827677308509234E-01     1.223414116574791    
    0.6034596635636542E-01     1.224473648194483    
    0.7241515962763850E-01     1.225757435831339    
    0.8448435289891160E-01     1.227258779794203    
    0.9655354617018468E-01     1.228969780449524    
    0.1086227394414578         1.230881349670629    
    0.1206919327127308         1.232983225676515    
    0.1327611259840039         1.235263991792978    
    0.1448303192552770         1.237711099660006    
    0.1568995125265501         1.240310897384698    
    0.1689687057978232         1.243048663101114    
    0.1810378990690963         1.245908644348247    
    0.1931070923403694         1.248874103615847    
    0.2051762856116424         1.251927370335243    
    0.2172454788829155         1.255049899509550    
    0.2293146721541886         1.258222337085116    
    0.2413838654254617         1.261424592065121    
    0.2534530586967348         1.264635915258358    
    0.2655222519680079         1.267834984443435    
    0.2775914452392809         1.270999995613398    
    0.2896606385105540         1.274108759850650    
    0.3017298317818271         1.277138805270310    
    0.3137990250531002         1.280067483364630    
    0.3258682183243733         1.282872078984945    
    0.3379374115956464         1.285529923113534    
    0.3500066048669194         1.288018507508184    
    0.3620757981381925         1.290315600247966    
    0.3741449914094656         1.292399361170658    
    0.3862141846807387         1.294248456168112    
    0.3982833779520118         1.295842169294074    
    0.4103525712232849         1.297160511634960    
    0.4224217644945580         1.298184325894367    
    0.4344909577658310         1.298895385644655    
    0.4465601510371041         1.299276488203251    
    0.4586293443083772         1.299311540103441    
    0.4706985375796503         1.298985634158258    
    0.4827677308509234         1.298285117175860    
    0.4948369241221965         1.297197647489858    
    0.5069061173934696         1.295712241629237    
    0.5189753106647427         1.293819309670957    
    0.5310445039360158         1.291510679084005    
    0.5431136972072887         1.288779607163043    
    0.5551828904785618         1.285620782432541    
    0.5672520837498349         1.282030315647415    
    0.5793212770211080         1.278005721200603    
    0.5913904702923811         1.273545889862677    
    0.6034596635636542         1.268651053827913    
    0.6155288568349273         1.263322745041386    
    0.6275980501062004         1.257563747751871    
    0.6396672433774735         1.251378046194739    
    0.6517364366487466         1.244770768269405    
    0.6638056299200197         1.237748126042910    
    0.6758748231912928         1.230317353884979    
    0.6879440164625659         1.222486645015339    
    0.7000132097338388         1.214265087216952    
    0.7120824030051119         1.205662598433148    
    0.7241515962763850         1.196689862867050    
    0.7362207895476581         1.187358268649300    
    0.7482899828189312         1.177679846711474    
    0.7603591760902043         1.167667219898975    
    0.7724283693614774         1.157333519555966    
    0.7844975626327505         1.146692362811554    
    0.7965667559040236         1.135757788305656    
    0.8086359491752967         1.124544210428711    
    0.8207051424465698         1.113066374093912    
    0.8327743357178429         1.101339312528717    
    0.8448435289891160         1.089378307503709    
    0.8569127222603889         1.077198851686649    
    0.8689819155316620         1.064816612744254    
    0.8810511088029351         1.052247398772618    
    0.8931203020742082         1.039507124612328    
    0.9051894953454813         1.026611778596120    
    0.9172586886167544         1.013577389285325    
    0.9293278818880275         1.000419991775711    
    0.9413970751593006        0.9871555931923401    
    0.9534662684305737        0.9738001370457473    
    0.9655354617018468        0.9603694661858428    
    0.9776046549731199        0.9468792841642597    
    0.9896738482443930        0.9333451148975038    
     1.001743041515666        0.9197822606105109    
     1.013812234786939        0.9062057581302970    
     1.025881428058212        0.8926303336899774    
     1.037950621329485        0.8790703564924119    
     1.050019814600758        0.8655397913667749    
     1.062089007872032        0.8520521509295826    
     1.074158201143305        0.8386204477307166    
     1.086227394414577        0.8252571469237644    
     1.098296587685851        0.8119741200467583    
     1.110365780957124        0.7987826005325009    
     1.122434974228397        0.7856931415865569    
     1.134504167499670        0.7727155770752533    
     1.146573360770943        0.7598589860541072    
     1.158642554042216        0.7471316615424212    
     1.170711747313489        0.7345410841066161    
     1.182780940584762        0.7220939007627851    
     1.194850133856035        0.7097959096421629    
     1.206919327127308        0.6976520507752278    
     1.218988520398582        0.6856664032509903    
     1.231057713669855        0.6738421891623355    
     1.243126906941128        0.6621817822327108    
     1.255196100212401        0.6506867373135361    
     1.267265293483674        0.6393577758026865    
     1.279334486754947        0.6281949918386703    
     1.291403680026220        0.6171981207332237    
     1.303472873297493        0.6063667565054761    
     1.315542066568766        0.5957003253595664    
     1.327611259840039        0.5851981062502739    
     1.339680453111312        0.5748592439910841    
     1.351749646382586        0.5646827609090137    
     1.363818839653859        0.5546675679016501    
     1.375888032925132        0.5448124744054431    
     1.387957226196405        0.5351161973964107    
     1.400026419467678        0.5255773698873092    
     1.412095612738951        0.5161945495379362    
     1.424164806010224        0.5069662265471637    
     1.436233999281497        0.4978908307033333    
     1.448303192552770        0.4889667377736596    
     1.460372385824043        0.4801922755760593    
     1.472441579095316        0.4715657298642885    
     1.484510772366589        0.4630853496160906    
     1.496579965637862        0.4547493519791269    
     1.508649158909136        0.4465559268285052    
     1.520718352180409        0.4385032410524302    
     1.532787545451682        0.4305894425125807    
     1.544856738722955        0.4228126636982642    
     1.556925931994228        0.4151710251260772    
     1.568995125265501        0.4076626384828926    
     1.581064318536774        0.4002856095308341    
     1.593133511808047        0.3930380407912163    
     1.605202705079320        0.3859180340211165    
     1.617271898350593        0.3789236924959893    
     1.629341091621866        0.3720531231103358    
     1.641410284893140        0.3653044383112338    
     1.653479478164413        0.3586757578689995    
     1.665548671435686        0.3521652104915354    
     1.677617864706959        0.3457709353246083    
     1.689687057978232        0.3394910833107439    
     1.701756251249505        0.3333238184232026    
     1.713825444520778        0.3272673187838295    
     1.725894637792051        0.3213197776589177    
     1.737963831063324        0.3154794043874767    
     1.750033024334597        0.3097444252337788    
     1.762102217605870        0.3041130841223572    
     1.774171410877143        0.2985836433035318    
     1.786240604148416        0.2931543839243140    
     1.798309797419690        0.2878236065448324    
     1.810378990690963        0.2825896316107337    
     1.822448183962236        0.2774507998506917    
     1.834517377233509        0.2724054726167656    
     1.846586570504782        0.2674520321754308    
     1.858655763776055        0.2625888819454222    
     1.870724957047328        0.2578144466965399    
     1.882794150318601        0.2531271727101097    
     1.894863343589874        0.2485255278972656    
     1.906932536861147        0.2440080018820091    
     1.919001730132420        0.2395731060537559    
     1.931070923403694        0.2352193735890104    
     1.943140116674967        0.2309453594455438    
     1.955209309946240        0.2267496403311028    
     1.967278503217513        0.2226308146488031    
     1.979347696488786        0.2185875024209712    
     1.991416889760059        0.2146183451933682    
     2.003486083031332        0.2107220059213537    
     2.015555276302605        0.2068971688395946    
     2.027624469573878        0.2031425393168297    
     2.039693662845151        0.1994568436969322    
     2.051762856116425        0.1958388291276970    
     2.063832049387698        0.1922872633783790    
     2.075901242658971        0.1888009346472610    
     2.087970435930244        0.1853786513601110    
     2.100039629201517        0.1820192419606658    
     2.112108822472790        0.1787215546938678    
     2.124178015744063        0.1754844573828660    
     2.136247209015336        0.1723068372003823    
     2.148316402286609        0.1691876004353378    
     2.160385595557882        0.1661256722552508    
     2.172454788829155        0.1631199964651759    
     2.184523982100428        0.1601695352636534    
     2.196593175371701        0.1572732689962475    
     2.208662368642974        0.1544301959072172    
     2.220731561914247        0.1516393318896644    
     2.232800755185520        0.1488997102347296    
     2.244869948456794        0.1462103813800764    
     2.256939141728067        0.1435704126581729    
     2.269008334999340        0.1409788880445845    
     2.281077528270613        0.1384349079066369    
     2.293146721541886        0.1359375887527637    
     2.305215914813159        0.1334860629826944    
     2.317285108084432        0.1310794786388520    
     2.329354301355705        0.1287169991590312    
     2.341423494626978        0.1263978031306908    
     2.353492687898251        0.1241210840469288    
     2.365561881169524        0.1218860500643443    
     2.377631074440798        0.1196919237629688    
     2.389700267712071        0.1175379419082978    
     2.401769460983344        0.1154233552156604    
     2.413838654254617        0.1133474281169271    
     2.425907847525890        0.1113094385296938    
     2.437977040797163        0.1093086776290528    
     2.450046234068436        0.1073444496219330    
     2.462115427339709        0.1054160715241815    
     2.474184620610982        0.1035228729403435    
     2.486253813882255        0.1016641958462282    
     2.498323007153529        0.9983939437432457E-01
     2.510392200424802        0.9804783460201727E-01
     2.522461393696075        0.9628889434272263E-01
     2.534530586967348        0.9456196293988403E-01
     2.546599780238621        0.9286644106386889E-01
     2.558668973509894        0.9120174051180795E-01
     2.570738166781167        0.8956728401030149E-01
     2.582807360052440        0.8796250502107893E-01
     2.594876553323713        0.8638684754954125E-01
     2.606945746594986        0.8483976595619785E-01
     2.619014939866259        0.8332072477101700E-01
     2.631084133137533        0.8182919851062349E-01
     2.643153326408806        0.8036467149835352E-01
     2.655222519680079        0.7892663768716791E-01
     2.667291712951352        0.7751460048535665E-01
     2.679360906222625        0.7612807258504051E-01
     2.691430099493898        0.7476657579345759E-01
     2.703499292765171        0.7342964086696196E-01
     2.715568486036444        0.7211680734776617E-01
     2.727637679307717        0.7082762340335029E-01
     2.739706872578990        0.6956164566852674E-01
     2.751776065850263        0.6831843909014648E-01
     2.763845259121537        0.6709757677438495E-01
     2.775914452392810        0.6589863983659147E-01
     2.787983645664082        0.6472121725368338E-01
     2.800052838935355        0.6356490571902473E-01
     2.812122032206628        0.6242930949977230E-01
     2.824191225477902        0.6131404029666558E-01
     2.836260418749175        0.6021871710620384E-01
     2.848329612020448        0.5914296608519194E-01
     2.860398805291721        0.5808642041762675E-01
     2.872467998562994        0.5704872018387455E-01
     2.884537191834267        0.5602951223211582E-01
     2.896606385105540        0.5502845005203090E-01
     2.908675578376813        0.5404519365067732E-01
     2.920744771648086        0.5307940943053663E-01
     2.932813964919359        0.5213077006970093E-01
     2.944883158190633        0.5119895440415601E-01
     2.956952351461906        0.5028364731213600E-01
     2.969021544733179        0.4938453960051994E-01
     2.981090738004452        0.4850132789323124E-01
     2.993159931275725        0.4763371452161340E-01
     3.005229124546998        0.4678140741675315E-01
     3.017298317818271        0.4594412000371443E-01
     3.029367511089544        0.4512157109765683E-01
     3.041436704360817        0.4431348480180915E-01
     3.053505897632090        0.4351959040726551E-01
     3.065575090903363        0.4273962229457671E-01
     3.077644284174637        0.4197331983710819E-01
     3.089713477445910        0.4122042730613475E-01
     3.101782670717183        0.4048069377764488E-01
     3.113851863988456        0.3975387304082626E-01
     3.125921057259729        0.3903972350820547E-01
     3.137990250531002        0.3833800812741483E-01
     3.150059443802275        0.3764849429455865E-01
     3.162128637073548        0.3697095376915405E-01
     3.174197830344821        0.3630516259061917E-01
     3.186267023616094        0.3565090099628398E-01
     3.198336216887367        0.3500795334089683E-01
     3.210405410158641        0.3437610801760373E-01
     3.222474603429914        0.3375515738037551E-01
     3.234543796701187        0.3314489766785554E-01
     3.246612989972460        0.3254512892860902E-01
     3.258682183243733        0.3195565494774587E-01
     3.270751376515006        0.3137628317489763E-01
     3.282820569786279        0.3080682465352188E-01
     3.294889763057552        0.3024709395152864E-01
     3.306958956328825        0.2969690909309958E-01
     3.319028149600098        0.2915609149198705E-01
     3.331097342871371        0.2862446588610828E-01
     3.343166536142645        0.2810186027180671E-01
     3.355235729413918        0.2758810584291926E-01
     3.367304922685191        0.2708303692739949E-01
     3.379374115956464        0.2658649092765362E-01
     3.391443309227737        0.2609830825533934E-01
     3.403512502499010        0.2561833228278932E-01
     3.415581695770283        0.2514640927927750E-01
     3.427650889041556        0.2468238835219926E-01
     3.439720082312829        0.2422612139761977E-01
     3.451789275584102        0.2377746304287543E-01
     3.463858468855375        0.2333627059130255E-01
     3.475927662126648        0.2290240399350501E-01
     3.487996855397921        0.2247572576319416E-01
     3.500066048669194        0.2205610095461895E-01
     3.512135241940467        0.2164339714705379E-01
     3.524204435211741        0.2123748437282942E-01
     3.536273628483014        0.2083823511787287E-01
     3.548342821754287        0.2044552430377190E-01
     3.560412015025560        0.2005922926506862E-01
     3.572481208296833        0.1967922977176669E-01
     3.584550401568106        0.1930540801892677E-01
     3.596619594839379        0.1893764864550597E-01
     3.608688788110652        0.1857583871923190E-01
     3.620757981381925        0.1821986780750815E-01
     3.632827174653198        0.1786962796489920E-01
     3.644896367924471        0.1752501373901617E-01
     3.656965561195745        0.1718592221960400E-01
     3.669034754467018        0.1685225303474604E-01
     3.681103947738291        0.1652390836503902E-01
     3.693173141009564        0.1620079295154726E-01
     3.705242334280837        0.1588281409404730E-01
     3.717311527552110        0.1556988164800496E-01
     3.729380720823383        0.1526190801078629E-01
     3.741449914094656        0.1495880811704558E-01
     3.753519107365929        0.1466049939444632E-01
     3.765588300637202        0.1436690174697359E-01
     3.777657493908475        0.1407793751383343E-01
     3.789726687179749        0.1379353144080889E-01
     3.801795880451022        0.1351361061185321E-01
     3.813865073722295        0.1323810441116530E-01
     3.825934266993568        0.1296694446218524E-01
     3.838003460264841        0.1270006457606159E-01
     3.850072653536114        0.1243740067308020E-01
     3.862141846807387        0.1217889072550562E-01
     3.874211040078660        0.1192447468529351E-01
     3.886280233349933        0.1167409441703197E-01
     3.898349426621206        0.1142769361772127E-01
     3.910418619892480        0.1118521774743605E-01
     3.922487813163753        0.1094661395325004E-01
     3.934557006435026        0.1071183099505273E-01
     3.946626199706299        0.1048081916875779E-01
     3.958695392977572        0.1025353023255851E-01
     3.970764586248845        0.1002991733275288E-01
     3.982833779520118        0.9809934929445166E-02
     3.994902972791391        0.9593538726250130E-02
     4.006972166062664        0.9380685598470474E-02
     4.019041359333937        0.9171333524695912E-02
     4.031110552605210        0.8965441517356390E-02
     4.043179745876484        0.8762969560669688E-02
     4.055248939147757        0.8563878545059184E-02
     4.067318132419030        0.8368130206841672E-02
     4.079387325690303        0.8175687066699178E-02
     4.091456518961576        0.7986512376657111E-02
     4.103525712232849        0.7800570063233341E-02
     4.115594905504122        0.7617824676309929E-02
     4.127664098775395        0.7438241337079609E-02
     4.139733292046668        0.7261785694142423E-02
     4.151802485317941        0.7088423876461213E-02
     4.163871678589214        0.6918122451182079E-02
     4.175940871860488        0.6750848383741933E-02
     4.188010065131761        0.6586568998223020E-02
     4.200079258403034        0.6425251944661159E-02
     4.212148451674307        0.6266865163754670E-02
     4.224217644945580        0.6111376856482501E-02
     4.236286838216853        0.5958755453612952E-02
     4.248356031488126        0.5808969591205833E-02
     4.260425224759399        0.5661988084258500E-02
     4.272494418030672        0.5517779904439264E-02
     4.284563611301945        0.5376314157999334E-02
     4.296632804573219        0.5237560068413771E-02
     4.308701997844492        0.5101486958047279E-02
     4.320771191115765        0.4968064232788781E-02
     4.332840384387037        0.4837261368283212E-02
     4.344909577658310        0.4709047896818639E-02
     4.356978770929583        0.4583393397734006E-02
     4.369047964200856        0.4460267487228504E-02
     4.381117157472129        0.4339639810649921E-02
     4.393186350743402        0.4221480035271255E-02
     4.405255544014675        0.4105757845620367E-02
     4.417324737285949        0.3992442938719664E-02
     4.429393930557222        0.3881505021017465E-02
     4.441463123828495        0.3772913806327415E-02
     4.453532317099768        0.3666639014412837E-02
     4.465601510371041        0.3562650371229922E-02
     4.477670703642314        0.3460917609298799E-02
     4.489739896913587        0.3361410469264343E-02
     4.501809090184860        0.3264098702009987E-02
     4.513878283456133        0.3168952071743760E-02
     4.525947476727406        0.3075940359472620E-02
     4.538016669998679        0.2985033367189714E-02
     4.550085863269953        0.2896200922581809E-02
     4.562155056541226        0.2809412884271041E-02
     4.574224249812499        0.2724639147439271E-02
     4.586293443083772        0.2641849649933021E-02
     4.598362636355045        0.2561014378703591E-02
     4.610431829626318        0.2482103376551368E-02
     4.622501022897591        0.2405086749317851E-02
     4.634570216168864        0.2329934672992317E-02
     4.646639409440137        0.2256617401373674E-02
     4.658708602711410        0.2185105273752353E-02
     4.670777795982684        0.2115368722728623E-02
     4.682846989253957        0.2047378282392310E-02
     4.694916182525230        0.1981104596071230E-02
     4.706985375796503        0.1916518424676438E-02
     4.719054569067776        0.1853590654823762E-02
     4.731123762339049        0.1792292306963554E-02
     4.743192955610322        0.1732594543793821E-02
     4.755262148881595        0.1674468677997105E-02
     4.767331342152868        0.1617886180589650E-02
     4.779400535424141        0.1562818688796376E-02
     4.791469728695414        0.1509238014271510E-02
     4.803538921966688        0.1457116150457895E-02
     4.815608115237961        0.1406425280543525E-02
     4.827677308509234        0.1357137784950074E-02
     4.839746501780507        0.1309226248650630E-02
     4.851815695051780        0.1262663468726046E-02
     4.863884888323053        0.1217422460933064E-02
     4.875954081594326        0.1173476466866395E-02
     4.888023274865599        0.1130798960567056E-02
     4.900092468136872        0.1089363654910306E-02
     4.912161661408145        0.1049144508196939E-02
     4.924230854679418        0.1010115729691542E-02
     4.936300047950692        0.9722517857347246E-03
     4.948369241221965        0.9355274052590683E-03
     4.960438434493238        0.8999175851358616E-03
     4.972507627764511        0.8653975952128885E-03
     4.984576821035784        0.8319429834954801E-03
     4.996646014307057        0.7995295802547285E-03
     5.008715207578330        0.7681335027408035E-03
     5.020784400849603        0.7377311592289807E-03
     5.032853594120876        0.7082992528247662E-03
     5.044922787392149        0.6798147854117519E-03
     5.056991980663422        0.6522550605211400E-03
     5.069061173934696        0.6255976867937451E-03
     5.081130367205969        0.5998205807853191E-03
     5.093199560477242        0.5749019695304507E-03
     5.105268753748515        0.5508203932507639E-03
     5.117337947019788        0.5275547070145076E-03
     5.129407140291061        0.5050840829603759E-03
     5.141476333562334        0.4833880118996064E-03
     5.153545526833607        0.4624463046850716E-03
     5.165614720104880        0.4422390937227022E-03
     5.177683913376153        0.4227468334995192E-03
     5.189753106647427        0.4039503016270853E-03
     5.201822299918700        0.3858305993199208E-03
     5.213891493189973        0.3683691517231689E-03
     5.225960686461246        0.3515477079684595E-03
     5.238029879732519        0.3353483413588005E-03
     5.250099073003792        0.3197534486437046E-03
     5.262168266275065        0.3047457498213535E-03
     5.274237459546338        0.2903082873951100E-03
     5.286306652817611        0.2764244254444146E-03
     5.298375846088884        0.2630778488707534E-03
     5.310445039360157        0.2502525617367928E-03
     5.322514232631431        0.2379328861587528E-03
     5.334583425902704        0.2261034606882976E-03
     5.346652619173977        0.2147492385990936E-03
     5.358721812445250        0.2038554859447666E-03
     5.370791005716523        0.1934077798681331E-03
     5.382860198987796        0.1833920059163711E-03
     5.394929392259069        0.1737943560864623E-03
     5.406998585530342        0.1646013263084084E-03
     5.419067778801615        0.1557997137429646E-03
     5.431136972072888        0.1473766146836756E-03
     5.443206165344161        0.1393194208544124E-03
     5.455275358615435        0.1316158170570930E-03
     5.467344551886708        0.1242537780135663E-03
     5.479413745157981        0.1172215652329947E-03
     5.491482938429254        0.1105077234379617E-03
     5.503552131700527        0.1041010787106076E-03
     5.515621324971800        0.9799073276187588E-04
     5.527690518243073        0.9216606092663484E-04
     5.539759711514346        0.8661670821705740E-04
     5.551828904785619        0.8133258564893072E-04
     5.563898098056892        0.7630386534498559E-04
     5.575967291328165        0.7152098175742756E-04
     5.588036484599438        0.6697461968441707E-04
     5.600105677870711        0.6265571567971204E-04
     5.612174871141984        0.5855545272128411E-04
     5.624244064413257        0.5466524976280493E-04
     5.636313257684530        0.5097678398146671E-04
     5.648382450955803        0.4748194676218005E-04
     5.660451644227076        0.4417286434566470E-04
     5.672520837498349        0.4104188776433413E-04
     5.684590030769622        0.3808158840617416E-04
     5.696659224040896        0.3528470172917910E-04
     5.708728417312169        0.3264434017814139E-04
     5.720797610583442        0.3015365804540324E-04
     5.732866803854715        0.2780605690753559E-04
     5.744935997125988        0.2559513260092869E-04
     5.757005190397261        0.2351467074010292E-04
     5.769074383668534        0.2155870935754155E-04
     5.781143576939807        0.1972125073376049E-04
     5.793212770211080        0.1799668803521458E-04
     5.805281963482353        0.1637952235296841E-04
     5.817351156753626        0.1486441885711139E-04
     5.829420350024900        0.1344619690883110E-04
     5.841489543296173        0.1211962079509303E-04
     5.853558736567446        0.1088020767754995E-04
     5.865627929838719        0.9722977301547275E-05
     5.877697123109992        0.8643209200491194E-05
     5.889766316381265        0.7636239459104812E-05
     5.901835509652538        0.6697435178593555E-05
     5.913904702923811        0.5822897666085440E-05
     5.925973896195084        0.5006449702513322E-05
     5.938043089466357        0.4243948339882836E-05
     5.950112282737630        0.3530578580258614E-05
     5.962181476008904        0.2861446231385507E-05
     5.974250669280177        0.2231558023220543E-05
     5.986319862551450        0.1630941638178881E-05
     5.998389055822723        0.1063675589478695E-05
     6.010458249093996        0.5215690930148244E-06
     6.022527442365269         0.000000000000000    
  0  2  2  0  0.000000   #orbital l, n, z, is_polarized, population
 500    0.5700755596530577E-02     2.844677042668758     # npts, delta, cutoff
     0.000000000000000         1.388289753997043    
    0.5700755596530577E-02     1.388319964470841    
    0.1140151119306115E-01     1.388429446431283    
    0.1710226678959173E-01     1.388611783125513    
    0.2280302238612231E-01     1.388866769336908    
    0.2850377798265288E-01     1.389194119106232    
    0.3420453357918346E-01     1.389593465067096    
    0.3990528917571404E-01     1.390064358414586    
    0.4560604477224461E-01     1.390606268970321    
    0.5130680036877519E-01     1.391218585286272    
    0.5700755596530577E-01     1.391900614777817    
    0.6270831156183634E-01     1.392651583885511    
    0.6840906715836692E-01     1.393470638267472    
    0.7410982275489750E-01     1.394356843025180    
    0.7981057835142807E-01     1.395309182965880    
    0.8551133394795865E-01     1.396326562905044    
    0.9121208954448923E-01     1.397407808012490    
    0.9691284514101980E-01     1.398551664205871    