<preamble>

<basis_specs>
===============================================================================
O                    Z=   8    Mass=  16.000        Charge=-0.30213    
Lmxo=2 Lmxkb= 2    BasisType=split      Semic=F
L=0  Nsemic=0  Cnfigmx=2
          n=1  nzeta=2  polorb=0  (2s)
            splnorm:   0.15000    
               vcte:    34.758    
               rinn:    3.2799    
               qcoe:    0.0000    
               qyuk:    0.0000    
               qwid:   0.10000E-01
                rcs:    6.0225      2.8447    
            lambdas:    1.0000      1.0000    
L=1  Nsemic=0  Cnfigmx=2
          n=1  nzeta=2  polorb=0  (2p)
            splnorm:   0.15000    
               vcte:    36.428    
               rinn:    3.1855    
               qcoe:    0.0000    
               qyuk:    0.0000    
               qwid:   0.10000E-01
                rcs:    5.8738      3.8400    
            lambdas:    1.0000      1.0000    
L=2  Nsemic=0  Cnfigmx=3
          n=1  nzeta=1  polorb=0  (3d)
            splnorm:   0.15000    
               vcte:    25.739    
               rinn:   0.91440    
               qcoe:    0.0000    
               qyuk:    0.0000    
               qwid:   0.10000E-01
                rcs:    4.6903    
            lambdas:    1.0000    
-------------------------------------------------------------------------------
L=0  Nkbl=1  erefs: 0.17977+309
L=1  Nkbl=1  erefs: 0.17977+309
L=2  Nkbl=1  erefs: 0.17977+309
===============================================================================
</basis_specs>

<pseudopotential_header>
 O  ps nrl pcec
 ONCVPSP-3.2018-03-01Hamann's oncvpsp                        
 2s 2.00  r= 1.26/2p 4.00  r= 1.36/3d 0.00  r= 1.26/                   
</pseudopotential_header>
</preamble>
O                             # Symbol
O                             # Label
    8                         # Atomic number
     6.00000000000                             # Valence charge
     16.0000000000        # Mass 
     48.1149463796        # Self energy 
   2   5                      # Lmax for basis, no. of nl orbitals 
   2   5                      # Lmax for projectors, no. of nl KB projectors
# PAOs:__________________________
  0  2  1  0  2.000000   #orbital l, n, z, is_polarized, population
 500    0.1206919327127308E-01     6.022527442365269     # npts, delta, cutoff
     0.000000000000000         1.221463223972202    
    0.1206919327127308E-01     1.221578289531584    
    0.2413838654254617E-01     1.221936973073583    
    0.3620757981381925E-01     1.222532740704566    
    0.4827677308509234E-01     1.223362534923230    
    0.6034596635636542E-01     1.224422079504322    
    0.7241515962763850E-01     1.225705883563990    
    0.8448435289891160E-01     1.227207247751144    
    0.9655354617018468E-01     1.228918272826812    
    0.1086227394414578         1.230829871110260    
    0.1206919327127308         1.232931781314419    
    0.1327611259840039         1.235212587303490    
    0.1448303192552770         1.237659741296665    
    0.1568995125265501         1.240259592017265    
    0.1689687057978232         1.242997418248638    
    0.1810378990690963         1.245857468208035    
    0.1931070923403694         1.248823005088145    
    0.2051762856116424         1.251876359043435    
    0.2172454788829155         1.254998985815632    
    0.2293146721541886         1.258171532100245    
    0.2413838654254617         1.261373907654988    
    0.2534530586967348         1.264585364043204    
    0.2655222519680079         1.267784579792512    
    0.2775914452392809         1.270949751633750    
    0.2896606385105540         1.274058691370116    
    0.3017298317818271         1.277088927814747    
    0.3137990250531002         1.280017813129389    
    0.3258682183243733         1.282822632800763    
    0.3379374115956464         1.285480718407072    
    0.3500066048669194         1.287969562257559    
    0.3620757981381925         1.290266932933759    
    0.3741449914094656         1.292350990722963    
    0.3862141846807387         1.294200401910366    
    0.3982833779520118         1.295794450884466    
    0.4103525712232849         1.297113149006346    
    0.4224217644945580         1.298137339193622    
    0.4344909577658310         1.298848795172415    
    0.4465601510371041         1.299230314354879    
    0.4586293443083772         1.299265803311892    
    0.4706985375796503         1.298940354839267    
    0.4827677308509234         1.298240315675591    
    0.4948369241221965         1.297153344034824    
    0.5069061173934696         1.295668456278026    
    0.5189753106647427         1.293776062267113    
    0.5310445039360158         1.291467989209323    
    0.5431136972072887         1.288737494090612    
    0.5551828904785618         1.285579265079049    
    0.5672520837498349         1.281989412524505    
    0.5793212770211080         1.277965450365393    
    0.5913904702923811         1.273506268867828    
    0.6034596635636542         1.268612099671871    
    0.6155288568349273         1.263284474119567    
    0.6275980501062004         1.257526175809567    
    0.6396672433774735         1.251341188282521    
    0.6517364366487466         1.244734638701641    
    0.6638056299200197         1.237712738359922    
    0.6758748231912928         1.230282720819155    
    0.6879440164625659         1.222452778461406    
    0.7000132097338388         1.214231998206464    
    0.7120824030051119         1.205630297113127    
    0.7241515962763850         1.196658358488370    
    0.7362207895476581         1.187327569520946    
    0.7482899828189312         1.177649960174076    
    0.7603591760902043         1.167638151441647    
    0.7724283693614774         1.157305274868189    
    0.7844975626327505         1.146664946496644    
    0.7965667559040236         1.135731204067438    
    0.8086359491752967         1.124518461043772    
    0.8207051424465698         1.113041461420896    
    0.8327743357178429         1.101315237519247    
    0.8448435289891160         1.089355070215721    
    0.8569127222603889         1.077176451300012    
    0.8689819155316620         1.064795047578584    
    0.8810511088029351         1.052226666307186    
    0.8931203020742082         1.039487221507969    
    0.9051894953454813         1.026592700719031    
    0.9172586886167544         1.013559131732652    
    0.9293278818880275         1.000402548902818    
    0.9413970751593006        0.9871389586416511    
    0.9534662684305737        0.9737843037770311    
    0.9655354617018468        0.9603544265078261    
    0.9776046549731199        0.9468650297674370    
    0.9896738482443930        0.9333316368880039    
     1.001743041515666        0.9197695495448766    
     1.013812234786939        0.9061938040510246    
     1.025881428058212        0.8926191261616555    
     1.037950621329485        0.8790598846382905    
     1.050019814600758        0.8655300439055854    
     1.062089007872032        0.8520431162124286    
     1.074158201143305        0.8386121137778401    
     1.086227394414577        0.8252495014609931    
     1.098296587685851        0.8119671505414383    
     1.110365780957124        0.7987762942287083    
     1.122434974228397        0.7856874855393942    
     1.134504167499670        0.7727105581840290    
     1.146573360770943        0.7598545910942166    
     1.158642554042216        0.7471278771957403    
     1.170711747313489        0.7345378969902464    
     1.182780940584762        0.7220912974559967    
     1.194850133856035        0.7097938767113997    
     1.206919327127308        0.6976505747970636    
     1.218988520398582        0.6856654708329475    
     1.231057713669855        0.6738417869615008    
     1.243126906941128        0.6621818969721092    
     1.255196100212401        0.6506873557962756    
     1.267265293483674        0.6393588849238414    
     1.279334486754947        0.6281965785952613    
     1.291403680026220        0.6172001722329972    
     1.303472873297493        0.6063692599751571    
     1.315542066568766        0.5957032681523042    
     1.327611259840039        0.5852014758524515    
     1.339680453111312        0.5748630280285053    
     1.351749646382586        0.5646869471525036    
     1.363818839653859        0.5546721442721173    
     1.375888032925132        0.5448174289784568    
     1.387957226196405        0.5351215184063277    
     1.400026419467678        0.5255830457309618    
     1.412095612738951        0.5162005687778812    
     1.424164806010224        0.5069725779145123    
     1.436233999281497        0.4978975031001904    
     1.448303192552770        0.4889737202751988    
     1.460372385824043        0.4801995574322554    
     1.472441579095316        0.4715733005013302    
     1.484510772366589        0.4630931986374937    
     1.496579965637862        0.4547574691665667    
     1.508649158909136        0.4465643021423880    
     1.520718352180409        0.4385118646322205    
     1.532787545451682        0.4305983046769030    
     1.544856738722955        0.4228217549447926    
     1.556925931994228        0.4151803361312299    
     1.568995125265501        0.4076721601013449    
     1.581064318536774        0.4002953327948620    
     1.593133511808047        0.3930479569098841    
     1.605202705079320        0.3859281343793211    
     1.617271898350593        0.3789339686533698    
     1.629341091621866        0.3720635668000610    
     1.641410284893140        0.3653150414386752    
     1.653479478164413        0.3586865125103006    
     1.665548671435686        0.3521761088920854    
     1.677617864706959        0.3457819698974263    
     1.689687057978232        0.3395022466347833    
     1.701756251249505        0.3333351032415833    
     1.713825444520778        0.3272787180020046    
     1.725894637792051        0.3213312843427795    
     1.737963831063324        0.3154910117614086    
     1.750033024334597        0.3097561266786532    
     1.762102217605870        0.3041248731734914    
     1.774171410877143        0.2985955136486035    
     1.786240604148416        0.2931663294012490    
     1.798309797419690        0.2878356211396617    
     1.810378990690963        0.2826017094554291    
     1.822448183962236        0.2774629352209772    
     1.834517377233509        0.2724176599299141    
     1.846586570504782        0.2674642659880450    
     1.858655763776055        0.2626011569512074    
     1.870724957047328        0.2578267577240668    
     1.882794150318601        0.2531395147205736    
     1.894863343589874        0.2485378959822438    
     1.906932536861147        0.2440203912612178    
     1.919001730132420        0.2395855120728095    
     1.931070923403694        0.2352317917171858    
     1.943140116674967        0.2309577852735507    
     1.955209309946240        0.2267620695688627    
     1.967278503217513        0.2226432431232380    
     1.979347696488786        0.2185999260738038    
     1.991416889760059        0.2146307600789347    
     2.003486083031332        0.2107344082044319    
     2.015555276302605        0.2069095547932459    
     2.027624469573878        0.2031549053202590    
     2.039693662845151        0.1994691862333647    
     2.051762856116425        0.1958511447822731    
     2.063832049387698        0.1922995488360696    
     2.075901242658971        0.1888131866908025    
     2.087970435930244        0.1853908668679607    
     2.100039629201517        0.1820314179049792    
     2.112108822472790        0.1787336881384982    
     2.124178015744063        0.1754965454813861    
     2.136247209015336        0.1723188771941292    
     2.148316402286609        0.1691995896514816    
     2.160385595557882        0.1661376081048864    
     2.172454788829155        0.1631318764414396    
     2.184523982100428        0.1601813569398637    
     2.196593175371701        0.1572850300240702    
     2.208662368642974        0.1544418940148556    
     2.220731561914247        0.1516509648800745    
     2.232800755185520        0.1489112759838605    
     2.244869948456794        0.1462218778351356    
     2.256939141728067        0.1435818378359172    
     2.269008334999340        0.1409902400296358    
     2.281077528270613        0.1384461848498240    
     2.293146721541886        0.1359487888694887    
     2.305215914813159        0.1334971845513252    
     2.317285108084432        0.1310905199991391    
     2.329354301355705        0.1287279587105505    
     2.341423494626978        0.1264086793313113    
     2.353492687898251        0.1241318754113052    
     2.365561881169524        0.1218967551624343    
     2.377631074440798        0.1197025412185758    
     2.389700267712071        0.1175484703976378    
     2.401769460983344        0.1154337934659534    
     2.413838654254617        0.1133577749050127    
     2.425907847525890        0.1113196926806714    
     2.437977040797163        0.1093188380149454    
     2.450046234068436        0.1073545151603749    
     2.462115427339709        0.1054260411771296    
     2.474184620610982        0.1035327457128117    
     2.486253813882255        0.1016739707850451    
     2.498323007153529        0.9984907056691478E-01
     2.510392200424802        0.9805741117520396E-01
     2.522461393696075        0.9629837046155391E-01
     2.534530586967348        0.9457133780648073E-01
     2.546599780238621        0.9287571391629479E-01
     2.558668973509894        0.9121091062296142E-01
     2.570738166781167        0.8957635068682884E-01
     2.582807360052440        0.8797146760230873E-01
     2.594876553323713        0.8639570540643986E-01
     2.606945746594986        0.8484851849034550E-01
     2.619014939866259        0.8332937141360425E-01
     2.631084133137533        0.8183773872146805E-01
     2.643153326408806        0.8037310476493673E-01
     2.655222519680079        0.7893496352369092E-01
     2.667291712951352        0.7752281843181597E-01
     2.679360906222625        0.7613618220632255E-01
     2.691430099493898        0.7477457667845207E-01
     2.703499292765171        0.7343753262769369E-01
     2.715568486036444        0.7212458961854502E-01
     2.727637679307717        0.7083529583993939E-01
     2.739706872578990        0.6956920794732788E-01
     2.751776065850263        0.6832589090740329E-01
     2.763845259121537        0.6710491784540290E-01
     2.775914452392810        0.6590586989497474E-01
     2.787983645664082        0.6472833605058824E-01
     2.800052838935355        0.6357191302242922E-01
     2.812122032206628        0.6243620509376176E-01
     2.824191225477902        0.6132082398073382E-01
     2.836260418749175        0.6022538869456992E-01
     2.848329612020448        0.5914952540613172E-01
     2.860398805291721        0.5809286731281955E-01
     2.872467998562994        0.5705505450776416E-01
     2.884537191834267        0.5603573385128593E-01
     2.896606385105540        0.5503455884459438E-01
     2.908675578376813        0.5405118950567932E-01
     2.920744771648086        0.5308529224737111E-01
     2.932813964919359        0.5213653975754032E-01
     2.944883158190633        0.5120461088139380E-01
     2.956952351461906        0.5028919050584200E-01
     2.969021544733179        0.4938996944590791E-01
     2.981090738004452        0.4850664433313858E-01
     2.993159931275725        0.4763891750599270E-01
     3.005229124546998        0.4678649690217540E-01
     3.017298317818271        0.4594909595288353E-01
     3.029367511089544        0.4512643347893519E-01
     3.041436704360817        0.4431823358875409E-01
     3.053505897632090        0.4352422557817631E-01
     3.065575090903363        0.4274414383205199E-01
     3.077644284174637        0.4197772772761337E-01
     3.089713477445910        0.4122472153957938E-01
     3.101782670717183        0.4048487434696962E-01
     3.113851863988456        0.3975793994159928E-01
     3.125921057259729        0.3904367673822787E-01
     3.137990250531002        0.3834184768633520E-01
     3.150059443802275        0.3765222018349622E-01
     3.162128637073548        0.3697456599033036E-01
     3.174197830344821        0.3630866114699803E-01
     3.186267023616094        0.3565428589121945E-01
     3.198336216887367        0.3501122457778912E-01
     3.210405410158641        0.3437926559956263E-01
     3.222474603429914        0.3375820130989140E-01
     3.234543796701187        0.3314782794647751E-01
     3.246612989972460        0.3254794555663011E-01
     3.258682183243733        0.3195835792389504E-01
     3.270751376515006        0.3137887249603852E-01
     3.282820569786279        0.3080930031435793E-01
     3.294889763057552        0.3024945594431540E-01
     3.306958956328825        0.2969915740735858E-01
     3.319028149600098        0.2915822611423378E-01
     3.331097342871371        0.2862648679959142E-01
     3.343166536142645        0.2810376745620138E-01
     3.355235729413918        0.2758989927411144E-01
     3.367304922685191        0.2708471657722325E-01
     3.379374115956464        0.2658805676365683E-01
     3.391443309227737        0.2609976024046190E-01
     3.403512502499010        0.2561967037521076E-01
     3.415581695770283        0.2514763343209709E-01
     3.427650889041556        0.2468349851342366E-01
     3.439720082312829        0.2422711750971384E-01
     3.451789275584102        0.2377834504262805E-01
     3.463858468855375        0.2333703840964261E-01
     3.475927662126648        0.2290305755584869E-01
     3.487996855397921        0.2247626498924343E-01
     3.500066048669194        0.2205652575898184E-01
     3.512135241940467        0.2164370743969531E-01
     3.524204435211741        0.2123768006054521E-01
     3.536273628483014        0.2083831610585252E-01
     3.548342821754287        0.2044549049784230E-01
     3.560412015025560        0.2005908057383584E-01
     3.572481208296833        0.1967896611028789E-01
     3.584550401568106        0.1930502931221730E-01
     3.596619594839379        0.1893715483262072E-01
     3.608688788110652        0.1857522975767335E-01
     3.620757981381925        0.1821914367801088E-01
     3.632827174653198        0.1786878867631989E-01
     3.644896367924471        0.1752405933368587E-01
     3.656965561195745        0.1718485277826553E-01
     3.669034754467018        0.1685106868175362E-01
     3.681103947738291        0.1652260927336650E-01
     3.693173141009564        0.1619937934790401E-01
     3.705242334280837        0.1588128626338298E-01
     3.717311527552110        0.1556823993800920E-01
     3.729380720823383        0.1526015283602656E-01
     3.741449914094656        0.1495693996287375E-01
     3.753519107365929        0.1465851882040377E-01
     3.765588300637202        0.1436480938992360E-01
     3.777657493908475        0.1407573409069451E-01
     3.789726687179749        0.1379121775089284E-01
     3.801795880451022        0.1351118753882728E-01
     3.813865073722295        0.1323557292461705E-01
     3.825934266993568        0.1296430561881445E-01
     3.838003460264841        0.1269731952045555E-01
     3.850072653536114        0.1243455063819437E-01
     3.862141846807387        0.1217593703274564E-01
     3.874211040078660        0.1192141874427637E-01
     3.886280233349933        0.1167093772498173E-01
     3.898349426621206        0.1142443775862614E-01
     3.910418619892480        0.1118186439086762E-01
     3.922487813163753        0.1094316485292334E-01
     3.934557006435026        0.1070828798709769E-01
     3.946626199706299        0.1047718416980016E-01
     3.958695392977572        0.1024980523754337E-01
     3.970764586248845        0.1002610441257193E-01
     3.982833779520118        0.9806036228353838E-02
     3.994902972791391        0.9589556459141941E-02
     4.006972166062664        0.9376622047972087E-02
     4.019041359333937        0.9167191038125829E-02
     4.031110552605210        0.8961222503544404E-02
     4.043179745876484        0.8758676486680456E-02
     4.055248939147757        0.8559513932804999E-02
     4.067318132419030        0.8363696629612928E-02
     4.079387325690303        0.8171187145616137E-02
     4.091456518961576        0.7981948777070249E-02
     4.103525712232849        0.7795945491069767E-02
     4.115594905504122        0.7613141874384706E-02
     4.127664098775395        0.7433503081378563E-02
     4.139733292046668        0.7256994790093524E-02
     4.151802485317941        0.7083583155198177E-02
     4.163871678589214        0.6913234765812536E-02
     4.175940871860488        0.6745916605628881E-02
     4.188010065131761        0.6581596013286918E-02
     4.200079258403034        0.6420240649713308E-02
     4.212148451674307        0.6261818462866815E-02
     4.224217644945580        0.6106297657401165E-02
     4.236286838216853        0.5953646664224536E-02
     4.248356031488126        0.5803834116059746E-02
     4.260425224759399        0.5656828821153193E-02
     4.272494418030672        0.5512599741077113E-02
     4.284563611301945        0.5371115968715237E-02
     4.296632804573219        0.5232346710982385E-02
     4.308701997844492        0.5096261270572919E-02
     4.320771191115765        0.4962829030682090E-02
     4.332840384387037        0.4832019441328069E-02
     4.344909577658310        0.4703802006332670E-02
     4.356978770929583        0.4578146273825410E-02
     4.369047964200856        0.4455021826151948E-02
     4.381117157472129        0.4334398272263620E-02
     4.393186350743402        0.4216245240597473E-02
     4.405255544014675        0.4100532374510492E-02
     4.417324737285949        0.3987229327625775E-02
     4.429393930557222        0.3876305760871197E-02
     4.441463123828495        0.3767731340527037E-02
     4.453532317099768        0.3661475736919505E-02
     4.465601510371041        0.3557508624772593E-02
     4.477670703642314        0.3455799683688852E-02
     4.489739896913587        0.3356318599819258E-02
     4.501809090184860        0.3259035068086550E-02
     4.513878283456133        0.3163918795378911E-02
     4.525947476727406        0.3070939504132578E-02
     4.538016669998679        0.2980066936625935E-02
     4.550085863269953        0.2891270859792639E-02
     4.562155056541226        0.2804521070568865E-02
     4.574224249812499        0.2719787401619756E-02
     4.586293443083772        0.2637039727546963E-02
     4.598362636355045        0.2556247971428813E-02
     4.610431829626318        0.2477382111662843E-02
     4.622501022897591        0.2400412189255435E-02
     4.634570216168864        0.2325308315021444E-02
     4.646639409440137        0.2252040677339613E-02
     4.658708602711410        0.2180579549924579E-02
     4.670777795982684        0.2110895299732997E-02
     4.682846989253957        0.2042958395230235E-02
     4.694916182525230        0.1976739414220143E-02
     4.706985375796503        0.1912209052272486E-02
     4.719054569067776        0.1849338130922514E-02
     4.731123762339049        0.1788097605876184E-02
     4.743192955610322        0.1728458575497852E-02
     4.755262148881595        0.1670392288615343E-02
     4.767331342152868        0.1613870152938480E-02
     4.779400535424141        0.1558863742998412E-02
     4.791469728695414        0.1505344808432360E-02
     4.803538921966688        0.1453285281400044E-02
     4.815608115237961        0.1402657284598673E-02
     4.827677308509234        0.1353433138805338E-02
     4.839746501780507        0.1305585370245751E-02
     4.851815695051780        0.1259086718201156E-02
     4.863884888323053        0.1213910141619703E-02
     4.875954081594326        0.1170028826323489E-02
     4.888023274865599        0.1127416191657143E-02
     4.900092468136872        0.1086045896913270E-02
     4.912161661408145        0.1045891847960977E-02
     4.924230854679418        0.1006928202814036E-02
     4.936300047950692        0.9691293777749846E-03
     4.948369241221965        0.9324700529783478E-03
     4.960438434493238        0.8969251777625379E-03
     4.972507627764511        0.8624699757299629E-03
     4.984576821035784        0.8290799499501856E-03
     4.996646014307057        0.7967308870832097E-03
     5.008715207578330        0.7653988621103902E-03
     5.020784400849603        0.7350602423934379E-03
     5.032853594120876        0.7056916914903743E-03
     5.044922787392149        0.6772701731142691E-03
     5.056991980663422        0.6497729540069446E-03
     5.069061173934696        0.6231776074078183E-03
     5.081130367205969        0.5974620158618286E-03
     5.093199560477242        0.5726043737840706E-03
     5.105268753748515        0.5485831901689603E-03
     5.117337947019788        0.5253772902447167E-03
     5.129407140291061        0.5029658176946305E-03
     5.141476333562334        0.4813282362529085E-03
     5.153545526833607        0.4604443310659598E-03
     5.165614720104880        0.4402942101962714E-03
     5.177683913376153        0.4208583051377956E-03
     5.189753106647427        0.4021173718488973E-03
     5.201822299918700        0.3840524912172652E-03
     5.213891493189973        0.3666450693731036E-03
     5.225960686461246        0.3498768377290803E-03
     5.238029879732519        0.3337298531493976E-03
     5.250099073003792        0.3181864972053741E-03
     5.262168266275065        0.3032294759597288E-03
     5.274237459546338        0.2888418192029294E-03
     5.286306652817611        0.2750068795031760E-03
     5.298375846088884        0.2617083314311540E-03
     5.310445039360157        0.2489301698760551E-03
     5.322514232631431        0.2366567089152214E-03
     5.334583425902704        0.2248725801721113E-03
     5.346652619173977        0.2135627310784251E-03
     5.358721812445250        0.2027124229072462E-03
     5.370791005716523        0.1923072290560573E-03
     5.382860198987796        0.1823330323371701E-03
     5.394929392259069        0.1727760229960846E-03
     5.406998585530342        0.1636226961682523E-03
     5.419067778801615        0.1548598491507813E-03
     5.431136972072888        0.1464745792735817E-03
     5.443206165344161        0.1384542801752923E-03
     5.455275358615435        0.1307866394199484E-03
     5.467344551886708        0.1234596353121713E-03
     5.479413745157981        0.1164615337370034E-03
     5.491482938429254        0.1097808845613718E-03
     5.503552131700527        0.1034065197403349E-03
     5.515621324971800        0.9732754757849158E-04
     5.527690518243073        0.9153335068526721E-04
     5.539759711514346        0.8601358200434698E-04
     5.551828904785619        0.8075816111332703E-04
     5.563898098056892        0.7575726931062001E-04
     5.575967291328165        0.7100135076832509E-04
     5.588036484599438        0.6648110059314623E-04
     5.600105677870711        0.6218746616442736E-04
     5.612174871141984        0.5811164178944793E-04
     5.624244064413257        0.5424505828299097E-04
     5.636313257684530        0.5057940497532943E-04
     5.648382450955803        0.4710658599997596E-04
     5.660451644227076        0.4381874071548983E-04
     5.672520837498349        0.4070823366716295E-04
     5.684590030769622        0.3776765013094962E-04
     5.696659224040896        0.3498974019420585E-04
     5.708728417312169        0.3236763003664350E-04
     5.720797610583442        0.2989448923322530E-04
     5.732866803854715        0.2756373461213791E-04
     5.744935997125988        0.2536897757539333E-04
     5.757005190397261        0.2330401960200188E-04
     5.769074383668534        0.2136291436822228E-04
     5.781143576939807        0.1953968170135765E-04
     5.793212770211080        0.1782873095905788E-04
     5.805281963482353        0.1622458015511143E-04
     5.817351156753626        0.1472191164837007E-04
     5.829420350024900        0.1331556228827208E-04
     5.841489543296173        0.1200031575091556E-04
     5.853558736567446        0.1077170409549791E-04
     5.865627929838719        0.9624767258532958E-05
     5.877697123109992        0.8554804266448633E-05
     5.889766316381265        0.7557171556599865E-05
     5.901835509652538        0.6627257604478137E-05
     5.913904702923811        0.5761180216620186E-05
     5.925973896195084        0.4952798795936846E-05
     5.938043089466357        0.4197991232358158E-05
     5.950112282737630        0.3491970031780222E-05
     5.962181476008904        0.2829870192464501E-05
     5.974250669280177        0.2206729436628727E-05
     5.986319862551450        0.1612636479434095E-05
     5.998389055822723        0.1051650787833969E-05
     6.010458249093996        0.5156347581636302E-06
     6.022527442365269         0.000000000000000    
  0  2  2  0  0.000000   #orbital l, n, z, is_polarized, population
 500    0.5700755596530577E-02     2.844677042668758     # npts, delta, cutoff
     0.000000000000000         1.388252308930447    
    0.5700755596530577E-02     1.388282521408355    
    0.1140151119306115E-01     1.388392009376890    
    0.1710226678959173E-01     1.388574356086116    
    0.2280302238612231E-01     1.388829356321655    
    0.2850377798265288E-01     1.389156724127381    
    0.3420453357918346E-01     1.389556092140857    
    0.3990528917571404E-01     1.390027011561905    
    0.4560604477224461E-01     1.390568952217634    
    0.5130680036877519E-01     1.391181302666187    
    0.5700755596530577E-01     1.391863370329756    
    0.6270831156183634E-01     1.392614381656263    
    0.6840906715836692E-01     1.393433482311685    
    0.7410982275489750E-01     1.394319737405775    
    0.7981057835142807E-01     1.395272131754387    
    0.8551133394795865E-01     1.396289570181852    
    0.9121208954448923E-01     1.397370877867015    
    0.9691284514101980E-01     1.398514800736635    