<?xml version="1.0" encoding="UTF-8" ?>
<psml version="1.1" energy_unit="hartree" length_unit="bohr"
 uuid="a691b730-1d65-11e8-43f1-a3526f532349"
 xmlns="http://esl.cecam.org/PSML/ns/1.1">
<provenance creator="ONCVPSP-3.3.0+psml-3.3.0-73 (scalar-relativistic)"
 date="2018-03-01">
<annotation action="semilocal-pseudopotential-generation"
 action-cont="projectors-generation" />
<input-file name="oncvpsp-input">
<![CDATA[# atsym z nc nv iexc psfile
Sr 38 6 3 -116133 upf
# n l f
1 0 2.0
2 0 2.0
2 1 6.0
3 0 2.0
3 1 6.0
3 2 10.0
4 0 2.0
4 1 6.0
5 0 2.0
# lmax
2
# l rc ep ncon nbas qcut
0 1.5 0.0 3 8 6.8
1 1.3 0.0 4 8 8.2
2 1.5 0.0 4 8 8.6
# lloc lpopt rc5 dvloc0
4 5 1.3 0.0
# l nproj debl
0 2 1.0
1 2 3.0
2 2 3.5
# icmod fcfact rcfact
3 6.0 1.35
# epsh1 epsh2 depsh
-12.0 12.0 0.02
# rlmax drl
6.0 0.01
 0
]]>
</input-file>
</provenance>
<pseudo-atom-spec atomic-label="Sr" atomic-number="38" z-pseudo="10"
 flavor="Hamann&apos;s oncvpsp" relativity="scalar" spin-dft="no"
 core-corrections="yes">
<annotation pseudo-energy="-30.9010605708" />
<exchange-correlation>
<annotation oncvpsp-xc-code="-116133" oncvpsp-xc-type="libxc-interface" />
<libxc-info number-of-functionals="2">
<functional name="Perdew, Burke &amp; Ernzerhof SOL (GGA)" type="exchange"
 id="116" />
<functional name="Perdew, Burke &amp; Ernzerhof SOL (GGA)" type="correlation"
 id="133" />
</libxc-info>
</exchange-correlation>
<valence-configuration total-valence-charge="10">
<shell n="4" l="s" occupation="2" />
<shell n="4" l="p" occupation="6" />
<shell n="5" l="s" occupation="2" />
</valence-configuration>
</pseudo-atom-spec>
<grid npts="457">
<annotation type="sampled from oncvpsp log grid"
 recipe="r(i:1..N) = r1*exp(a*(i-1)) + r=0; resampled"
 recipe-cont="r1: scale; a: step" scale="0.131578947368E-04"
 step="0.119285708653E-01" delta="0.500000000000E-02" rmax="44.3233076602" />
<grid-data>
  0.000000000000E+00  5.001285356115E-03  1.010955111220E-02  1.516593874179E-02
  2.019303497754E-02  2.532977517910E-02  3.065628572608E-02  3.579861277629E-02
  4.081801070727E-02  4.598931705399E-02  5.120136896821E-02  5.632817400049E-02
  6.196832721796E-02  6.736485206945E-02  7.323133442633E-02  7.866472394973E-02
  8.450124311626E-02  8.969446845692E-02  9.520685584117E-02  1.010580201333E-01
  1.072687816757E-01  1.125111070896E-01  1.180096298362E-01  1.237768705182E-01
  1.298259616315E-01  1.361706774698E-01  1.428254654891E-01  1.480291296502E-01
  1.534223826959E-01  1.590121320562E-01  1.648055368242E-01  1.708100169258E-01
  1.770332626221E-01  1.834832443594E-01  1.901682229770E-01  1.970967602872E-01
  2.042777300411E-01  2.117203292939E-01  2.168321049244E-01  2.220672992657E-01
  2.274288921392E-01  2.329199353110E-01  2.385435542291E-01  2.443029498024E-01
  2.502014002225E-01  2.562422628294E-01  2.624289760232E-01  2.687650612203E-01
  2.752541248584E-01  2.818998604490E-01  2.887060506796E-01  2.956765695673E-01
  3.028153846629E-01  3.101265593102E-01  3.176142549582E-01  3.252827335299E-01
  3.331363598482E-01  3.411796041204E-01  3.494170444823E-01  3.578533696043E-01
  3.664933813600E-01  3.753419975595E-01  3.844042547486E-01  3.936853110753E-01
  4.031904492259E-01  4.129250794320E-01  4.228947425498E-01  4.279694794604E-01
  4.331051132139E-01  4.383023745725E-01  4.435620030674E-01  4.488847471042E-01
  4.542713640694E-01  4.597226204382E-01  4.652392918835E-01  4.708221633861E-01
  4.764720293467E-01  4.821896936989E-01  4.879759700233E-01  4.938316816636E-01
  4.997576618435E-01  5.057547537857E-01  5.118238108311E-01  5.179656965611E-01
  5.241812849198E-01  5.304714603388E-01  5.368371178629E-01  5.432791632772E-01
  5.497985132366E-01  5.563960953954E-01  5.630728485402E-01  5.698297227226E-01
  5.766676793953E-01  5.835876915481E-01  5.905907438466E-01  5.976778327728E-01
  6.048499667661E-01  6.121081663673E-01  6.194534643637E-01  6.268869059360E-01
  6.344095488073E-01  6.420224633929E-01  6.497267329537E-01  6.575234537491E-01
  6.654137351941E-01  6.733987000164E-01  6.814794844166E-01  6.896572382296E-01
  6.979331250884E-01  7.063083225894E-01  7.147840224605E-01  7.233614307300E-01
  7.320417678988E-01  7.408262691136E-01  7.497161843429E-01  7.587127785551E-01
  7.678173318977E-01  7.770311398805E-01  7.863555135591E-01  7.957917797218E-01
  8.053412810784E-01  8.150053764514E-01  8.247854409688E-01  8.346828662604E-01
  8.446990606555E-01  8.548354493834E-01  8.650934747760E-01  8.754745964733E-01
  8.859802916310E-01  8.966120551306E-01  9.073713997921E-01  9.182598565896E-01
  9.292789748687E-01  9.404303225671E-01  9.517154864379E-01  9.631360722752E-01
  9.746937051425E-01  9.863900296042E-01  9.982267099595E-01  1.010205430479E+00
  1.022327895645E+00  1.034595830392E+00  1.047010980357E+00  1.059575112121E+00
  1.072290013467E+00  1.085157493629E+00  1.098179383552E+00  1.111357536155E+00
  1.124693826589E+00  1.138190152508E+00  1.151848434338E+00  1.165670615550E+00
  1.179658662936E+00  1.193814566892E+00  1.208140341694E+00  1.222638025795E+00
  1.237309682104E+00  1.252157398289E+00  1.267183287069E+00  1.282389486514E+00
  1.297778160352E+00  1.313351498276E+00  1.329111716255E+00  1.345061056850E+00
  1.361201789533E+00  1.377536211007E+00  1.394066645539E+00  1.410795445286E+00
  1.427724990629E+00  1.444857690517E+00  1.462195982803E+00  1.479742334596E+00
  1.497499242612E+00  1.515469233523E+00  1.533654864325E+00  1.552058722697E+00
  1.570683427369E+00  1.589531628498E+00  1.608606008040E+00  1.627909280136E+00
  1.647444191498E+00  1.667213521796E+00  1.687220084058E+00  1.707466725066E+00
  1.727956325767E+00  1.748691801676E+00  1.769676103296E+00  1.790912216536E+00
  1.812403163134E+00  1.834152001092E+00  1.856161825105E+00  1.878435767006E+00
  1.900976996210E+00  1.923788720165E+00  1.946874184807E+00  1.970236675025E+00
  1.993879515125E+00  2.017806069306E+00  2.042019742138E+00  2.066523979044E+00
  2.091322266792E+00  2.116418133994E+00  2.141815151602E+00  2.167516933421E+00
  2.193527136622E+00  2.219849462261E+00  2.246487655808E+00  2.273445507678E+00
  2.300726853770E+00  2.328335576016E+00  2.356275602928E+00  2.384550910163E+00
  2.413165521085E+00  2.442123507338E+00  2.471428989426E+00  2.501086137299E+00
  2.531099170947E+00  2.561472360998E+00  2.592210029330E+00  2.623316549682E+00
  2.654796348278E+00  2.686653904457E+00  2.718893751311E+00  2.751520476327E+00
  2.784538722043E+00  2.817953186707E+00  2.851768624948E+00  2.885989848447E+00
  2.920621726628E+00  2.955669187348E+00  2.991137217596E+00  3.027030864207E+00
  3.063355234578E+00  3.100115497393E+00  3.137316883361E+00  3.174964685962E+00
  3.213064262193E+00  3.251621033339E+00  3.290640485740E+00  3.330128171568E+00
  3.370089709627E+00  3.410530786143E+00  3.451457155576E+00  3.492874641443E+00
  3.534789137141E+00  3.577206606786E+00  3.620133086068E+00  3.663574683101E+00
  3.707537579298E+00  3.752028030249E+00  3.797052366612E+00  3.842616995012E+00
  3.888728398952E+00  3.935393139739E+00  3.982617857416E+00  4.030409271705E+00
  4.078774182966E+00  4.127719473161E+00  4.177252106839E+00  4.227379132121E+00
  4.278107681707E+00  4.329444973887E+00  4.381398313574E+00  4.433975093337E+00
  4.487182794457E+00  4.541028987990E+00  4.595521335846E+00  4.650667591876E+00
  4.706475602979E+00  4.762953310215E+00  4.820108749937E+00  4.877950054936E+00
  4.936485455596E+00  4.995723281063E+00  5.055671960436E+00  5.116340023961E+00
  5.177736104248E+00  5.239868937499E+00  5.302747364749E+00  5.366380333126E+00
  5.430776897124E+00  5.495946219889E+00  5.561897574528E+00  5.628640345422E+00
  5.696184029567E+00  5.764538237922E+00  5.833712696777E+00  5.903717249139E+00
  5.974561856128E+00  6.046256598402E+00  6.118811677583E+00  6.192237417714E+00
  6.266544266726E+00  6.341742797927E+00  6.417843711502E+00  6.494857836040E+00
  6.572796130072E+00  6.651669683633E+00  6.731489719837E+00  6.812267596475E+00
  6.894014807633E+00  6.976742985324E+00  7.060463901148E+00  7.145189467962E+00
  7.230931741577E+00  7.317702922476E+00  7.405515357546E+00  7.494381541837E+00
  7.584314120339E+00  7.675325889783E+00  7.767429800460E+00  7.860638958066E+00
  7.954966625562E+00  8.050426225069E+00  8.147031339770E+00  8.244795715847E+00
  8.343733264437E+00  8.443858063611E+00  8.545184360374E+00  8.647726572698E+00
  8.751499291571E+00  8.856517283070E+00  8.962795490467E+00  9.070349036352E+00
  9.179193224788E+00  9.289343543486E+00  9.400815666008E+00  9.513625454000E+00
  9.627788959448E+00  9.743322426961E+00  9.860242296085E+00  9.978565203638E+00
  1.009830798608E+01  1.021948768191E+01  1.034212153410E+01  1.046622699251E+01
  1.059182171642E+01  1.071892357701E+01  1.084755065994E+01  1.097772126786E+01
  1.110945392307E+01  1.124276737015E+01  1.137768057859E+01  1.151421274553E+01
  1.165238329848E+01  1.179221189806E+01  1.193371844084E+01  1.207692306213E+01
  1.222184613887E+01  1.236850829254E+01  1.251693039205E+01  1.266713355675E+01
  1.281913915944E+01  1.297296882935E+01  1.312864445530E+01  1.328618818877E+01
  1.344562244703E+01  1.360696991639E+01  1.377025355539E+01  1.393549659806E+01
  1.410272255723E+01  1.427195522792E+01  1.444321869065E+01  1.461653731494E+01
  1.479193576272E+01  1.496943899187E+01  1.514907225978E+01  1.533086112689E+01
  1.551483146042E+01  1.570100943794E+01  1.588942155120E+01  1.608009460981E+01
  1.627305574513E+01  1.646833241407E+01  1.666595240304E+01  1.686594383188E+01
  1.706833515786E+01  1.727315517975E+01  1.748043304191E+01  1.769019823841E+01
  1.790248061727E+01  1.811731038468E+01  1.833471810930E+01  1.855473472661E+01
  1.877739154333E+01  1.900272024185E+01  1.923075288475E+01  1.946152191937E+01
  1.969506018240E+01  1.993140090459E+01  2.017057771544E+01  2.041262464803E+01
  2.065757614381E+01  2.090546705753E+01  2.115633266222E+01  2.141020865417E+01
  2.166713115802E+01  2.192713673191E+01  2.219026237270E+01  2.245654552117E+01
  2.272602406742E+01  2.299873635623E+01  2.327472119251E+01  2.355401784682E+01
  2.383666606098E+01  2.412270605371E+01  2.441217852636E+01  2.470512466867E+01
  2.500158616470E+01  2.530160519867E+01  2.560522446106E+01  2.591248715459E+01
  2.622343700044E+01  2.653811824445E+01  2.685657566338E+01  2.717885457134E+01
  2.750500082620E+01  2.783506083611E+01  2.816908156615E+01  2.850711054494E+01
  2.884919587148E+01  2.919538622194E+01  2.954573085660E+01  2.990027962688E+01
  3.025908298240E+01  3.062219197819E+01  3.098965828193E+01  3.136153418131E+01
  3.173787259149E+01  3.211872706259E+01  3.250415178734E+01  3.289420160879E+01
  3.328893202809E+01  3.368839921243E+01  3.409266000298E+01  3.450177192301E+01
  3.491579318609E+01  3.533478270432E+01  3.575880009677E+01  3.618790569794E+01
  3.662216056631E+01  3.706162649311E+01  3.750636601102E+01  3.795644240316E+01
  3.841191971199E+01  3.887286274854E+01  3.933933710152E+01  3.981140914674E+01
  4.028914605650E+01  4.077261580918E+01  4.126188719889E+01  4.175702984527E+01
  4.225811420342E+01  4.276521157386E+01  4.327839411275E+01  4.379773484210E+01
  4.432330766020E+01
</grid-data>
</grid>
<valence-charge total-charge="10" is-unscreening-charge="yes"
 rescaled-to-z-pseudo="no">
<radfunc>
<data npts="457">
  1.613323692709E-02  1.620959629188E-02  1.644542890955E-02  1.683651159287E-02
  1.738172487391E-02  1.810123396962E-02  1.902254145030E-02  2.008344358777E-02
  2.128387512214E-02  2.269388440986E-02  2.429627540859E-02  2.605368792349E-02
  2.819950269143E-02  3.046618032915E-02  3.317371804242E-02  3.591409106550E-02
  3.911475397510E-02  4.219322466825E-02  4.570590370097E-02  4.971937627025E-02
  5.431164056453E-02  5.846321501490E-02  6.309777186808E-02  6.827721489525E-02
  7.407229636257E-02  8.056399625160E-02  8.784512277232E-02  9.388751702621E-02
  1.004842005488E-01  1.076914101584E-01  1.155716016893E-01  1.241941621250E-01
  1.336361986284E-01  1.439834106817E-01  1.553310514134E-01  1.677849838266E-01
  1.814628369633E-01  1.964952659681E-01  2.073404198708E-01  2.188985775714E-01
  2.312199071556E-01  2.443581283566E-01  2.583707350431E-01  2.733192252025E-01
  2.892693374018E-01  3.062912923991E-01  3.244600382250E-01  3.438554966379E-01
  3.645628083767E-01  3.866725740868E-01  4.102810871650E-01  4.354905540504E-01
  4.624092966769E-01  4.911519308798E-01  5.218395135188E-01  5.545996499175E-01
  5.895665519325E-01  6.268810355299E-01  6.666904451733E-01  7.091484905969E-01
  7.544149796552E-01  8.026554289147E-01  8.540405314806E-01  9.087454592640E-01
  9.669489745109E-01  1.028832322977E+00  1.094577878715E+00  1.128955888426E+00
  1.164367508102E+00  1.200835071702E+00  1.238380618623E+00  1.277025812920E+00
  1.316791856148E+00  1.357699393544E+00  1.399768413227E+00  1.443018138148E+00
  1.487466910501E+00  1.533132068315E+00  1.580029813984E+00  1.628175074490E+00
  1.677581353106E+00  1.728260572407E+00  1.780222908433E+00  1.833476615905E+00
  1.888027844453E+00  1.943880445843E+00  2.001035772297E+00  2.059492466051E+00
  2.119246240389E+00  2.180289652496E+00  2.242611868578E+00  2.306198421813E+00
  2.371030963850E+00  2.437087010694E+00  2.504339683998E+00  2.572757448943E+00
  2.642303850075E+00  2.712937246665E+00  2.784610549365E+00  2.857270960145E+00
  2.930859717742E+00  3.005311851037E+00  3.080555943070E+00  3.156513908571E+00
  3.233100788170E+00  3.310224562618E+00  3.387785990592E+00  3.465678473827E+00
  3.543787953461E+00  3.621992841637E+00  3.700163992464E+00  3.778164716485E+00
  3.855850842784E+00  3.933070832782E+00  4.009665949625E+00  4.085470486828E+00
  4.160312059542E+00  4.234011961417E+00  4.306385589517E+00  4.377242939206E+00
  4.446389170219E+00  4.513625244391E+00  4.578748634663E+00  4.641554104111E+00
  4.701834552715E+00  4.759381928644E+00  4.813988199748E+00  4.865446379960E+00
  4.913551604289E+00  4.958102245142E+00  4.998901061882E+00  5.035756374768E+00
  5.068483253828E+00  5.096904712831E+00  5.120852898265E+00  5.140170263273E+00
  5.154710716670E+00  5.164340737684E+00  5.168940447696E+00  5.168404631166E+00
  5.162643698982E+00  5.151584588665E+00  5.135171597097E+00  5.113367142742E+00
  5.086152455478E+00  5.053528193226E+00  5.015514985323E+00  4.972153903099E+00
  4.923506858133E+00  4.869656928323E+00  4.810708611015E+00  4.746788001051E+00
  4.678042889753E+00  4.604642778622E+00  4.526778798980E+00  4.444663526133E+00
  4.358530674029E+00  4.268634654115E+00  4.175249980390E+00  4.078670501806E+00
  3.979208443430E+00  3.877193239412E+00  3.772969007605E+00  3.666887082194E+00
  3.559295865603E+00  3.450537900548E+00  3.340950155632E+00  3.230861967500E+00
  3.120593943636E+00  3.010456783861E+00  2.900750181063E+00  2.791761787885E+00
  2.683766250862E+00  2.577024314650E+00  2.471776376774E+00  2.368224563052E+00
  2.266537612684E+00  2.166878677162E+00  2.069391387043E+00  1.974204296925E+00
  1.881430606198E+00  1.791168586265E+00  1.703502014752E+00  1.618500657679E+00
  1.536220795066E+00  1.456705783837E+00  1.379986652839E+00  1.306082724092E+00
  1.235002255172E+00  1.166743097636E+00  1.101293366637E+00  1.038632117164E+00
  9.787300225891E-01  9.215500515212E-01  8.670481392171E-01  8.151738501373E-01
  7.658710285288E-01  7.190784340980E-01  6.747303604166E-01  6.327572336342E-01
  5.930861895848E-01  5.556416275546E-01  5.203457392401E-01  4.871190116672E-01
  4.558807030665E-01  4.265492909112E-01  3.990428915281E-01  3.732796508774E-01
  3.491781062750E-01  3.266575189985E-01  3.056381778754E-01  2.860416740994E-01
  2.677911476626E-01  2.508115059215E-01  2.350296149410E-01  2.203744643773E-01
  2.067773067753E-01  1.941717722642E-01  1.824939597439E-01  1.716825057701E-01
  1.616786324605E-01  1.524261758768E-01  1.438715964692E-01  1.359639733180E-01
  1.286549840369E-01  1.218988723193E-01  1.156524051687E-01  1.098748218412E-01
  1.045277764081E-01  9.957527561189E-02  9.498361334373E-02  9.072130264708E-02
  8.675900571455E-02  8.306946195342E-02  7.962741392215E-02  7.640953082236E-02
  7.339432927450E-02  7.056209128056E-02  6.789477952859E-02  6.537595045802E-02
  6.299066572891E-02  6.072540288687E-02  5.856796607865E-02  5.650739765695E-02
  5.453389143653E-02  5.263870824976E-02  5.081409431986E-02  4.905320283992E-02
  4.735001902782E-02  4.569928882553E-02  4.409645132869E-02  4.253757496839E-02
  4.101929741822E-02  3.953876916482E-02  3.809360065498E-02  3.668181291601E-02
  3.530179153441E-02  3.395224387151E-02  3.263215939051E-02  3.134077296727E-02
  3.007753105649E-02  2.884206058486E-02  2.763414044300E-02  2.645367544870E-02
  2.530067265461E-02  2.417521987384E-02  2.307746629770E-02  2.200760508011E-02
  2.096585776366E-02  1.995246042303E-02  1.896765140224E-02  1.801166052407E-02
  1.708469965181E-02  1.618695448775E-02  1.531857749730E-02  1.447968185479E-02
  1.367033631606E-02  1.289056093339E-02  1.214032354170E-02  1.141953695871E-02
  1.072805685688E-02  1.006568027911E-02  9.432144783187E-03  8.827128201405E-03
  8.250249066313E-03  7.701067595636E-03  7.179087353788E-03  6.683757519497E-03
  6.214475751520E-03  5.770591617938E-03  5.351410539036E-03  4.956198178856E-03
  4.584185207645E-03  4.234572347544E-03  3.906535607715E-03  3.599231612974E-03
  3.311802931793E-03  3.043383314771E-03  2.793102762857E-03  2.560092354830E-03
  2.343488775220E-03  2.142438496081E-03  1.956101578360E-03  1.783655070372E-03
  1.624295991804E-03  1.477243901414E-03  1.341743055037E-03  1.217064167558E-03
  1.102505798201E-03  9.973953828455E-04  9.010899402505E-04  8.129764811084E-04
  7.324721499706E-04  6.590241303606E-04  5.921093429876E-04  5.312339660117E-04
  4.759328049102E-04  4.257685377582E-04  3.803308597646E-04  3.392355487786E-04
  3.021234712785E-04  2.686595461320E-04  2.385316812386E-04  2.114496960663E-04
  1.871442411178E-04  1.653657235372E-04  1.458832464068E-04  1.284835678095E-04
  1.129700844424E-04  9.916184345887E-05  8.689258528979E-05  7.600981942726E-05
  6.637393453626E-05  5.785734377100E-05  5.034366579208E-05  4.372694169003E-05
  3.791088780067E-05  3.280818423113E-05  2.833979878754E-05  2.443434589409E-05
  2.102748000844E-05  1.806132296339E-05  1.548392459400E-05  1.324875594053E-05
  1.131423424850E-05  9.643278918444E-06  8.202897489700E-06  6.963800676504E-06
  5.900045411908E-06  4.988704797750E-06  4.209563808099E-06  3.544839550931E-06
  2.978924859143E-06  2.498153958116E-06  2.090588943203E-06  1.745825796896E-06
  1.454818681574E-06  1.209721259351E-06  1.003743814768E-06  8.310249881428E-07
  6.865169662573E-07  5.658830217791E-07  4.654063422656E-07  3.819091427487E-07
  3.126811117716E-07  2.554162983537E-07  2.081576058519E-07  1.692481172604E-07
  1.372885344603E-07  1.111000706909E-07  8.969219056428E-08  7.223464486999E-08
  5.803329789963E-08  4.650929280808E-08  3.718114546518E-08  2.964939922471E-08
  2.358351200976E-08  1.871068308784E-08  1.480635993411E-08  1.168619573939E-08
  9.199255520121E-09  7.222293562482E-09  5.654947227432E-09  4.415712115401E-09
  3.438581400732E-09  2.670247962355E-09  2.067781922407E-09  1.596708519690E-09
  1.229422045338E-09  9.438810023354E-10  7.225378590857E-10  5.514638815436E-10
  4.196356707496E-10  3.183553155783E-10  2.407805972633E-10  1.815455465145E-10
  1.364549405070E-10  1.022391117268E-10  7.635779151662E-11  5.684368845993E-11
  4.217815872180E-11  3.119270892203E-11  2.299122295384E-11  1.688875797208E-11
  1.236354237538E-11  9.019456556043E-12  6.556808274772E-12  4.749648191104E-12
  3.428223886965E-12  2.465456659681E-12  1.766556229368E-12  1.261074200854E-12
  8.968459092282E-13  6.353890359017E-13  4.484218020804E-13  3.152383225286E-13
  2.207376877953E-13  1.539496871306E-13  1.069363502131E-13  7.397675029185E-14
  5.096444982214E-14  3.496392778653E-14  2.388538171013E-14  1.624730356873E-14
  1.100386632247E-14  7.419962405121E-15  4.981127948932E-15  3.328895835487E-15
  2.214602908273E-15  1.466530247045E-15  9.666332671370E-16  6.341379801273E-16
  4.140307239148E-16  2.690192233377E-16  1.739445623485E-16  1.119153733607E-16
  7.164637600592E-17  4.563501771718E-17  2.891847210782E-17  1.823051242705E-17
  1.143251512157E-17  7.131431313181E-18  4.424619570439E-18  2.730306777874E-18
  1.675540239575E-18  1.022533299251E-18  6.205119752141E-19  3.744066495459E-19
  2.246093439741E-19  1.339592747269E-19  7.942329116815E-20  4.680821283238E-20
  2.741979305210E-20  0.000000000000E+00  0.000000000000E+00  0.000000000000E+00
  0.000000000000E+00
</data>
</radfunc>
</valence-charge>
<pseudocore-charge matching-radius="0.929278974869"
 number-of-continuous-derivatives="4">
<annotation model-charge-form="Teter function with specified parameters" />
<radfunc>
<data npts="290">
  3.123485824614E+01  3.123328988013E+01  3.122845033637E+01  3.122043911577E+01
  3.120929999627E+01  3.119465185059E+01  3.117598068283E+01  3.115459740858E+01
  3.113055014771E+01  3.110250179713E+01  3.107087946329E+01  3.103649967659E+01
  3.099493793010E+01  3.095151715308E+01  3.090027789525E+01  3.084908675083E+01
  3.079011624997E+01  3.073419623603E+01  3.067130555334E+01  3.060059151271E+01
  3.052110148522E+01  3.045048034731E+01  3.037296465701E+01  3.028790075099E+01
  3.019457707211E+01  3.009221991013E+01  2.997998902246E+01  2.988879085913E+01
  2.979111563700E+01  2.968652636451E+01  2.957456010647E+01  2.945472700304E+01
  2.932650934883E+01  2.918936075405E+01  2.904270541365E+01  2.888593751421E+01
  2.871842081317E+01  2.853948843006E+01  2.841351494991E+01  2.828194432217E+01
  2.814455650673E+01  2.800112569254E+01  2.785142045932E+01  2.769520398343E+01
  2.753223429285E+01  2.736226457604E+01  2.718504355016E+01  2.700031589415E+01
  2.680782275283E+01  2.660730231817E+01  2.639849049449E+01  2.618112165432E+01
  2.595492949226E+01  2.571964798418E+01  2.547501245928E+01  2.522076079280E+01
  2.495663472711E+01  2.468238132885E+01  2.439775458974E+01  2.410251717840E+01
  2.379644234987E+01  2.347931601937E+01  2.315093900558E+01  2.281112944801E+01
  2.245972540163E+01  2.209658761030E+01  2.172160245881E+01  2.152963939569E+01
  2.133468510086E+01  2.113673400490E+01  2.093578275775E+01  2.073183034054E+01
  2.052487817958E+01  2.031493026257E+01  2.010199325674E+01  1.988607662870E+01
  1.966719276606E+01  1.944535710024E+01  1.922058823066E+01  1.899290804963E+01
  1.876234186798E+01  1.852891854101E+01  1.829267059429E+01  1.805363434929E+01
  1.781185004800E+01  1.756736197654E+01  1.732021858703E+01  1.707047261735E+01
  1.681818120828E+01  1.656340601739E+01  1.630621332922E+01  1.604667416104E+01
  1.578486436355E+01  1.552086471591E+01  1.525476101426E+01  1.498664415315E+01
  1.471661019887E+01  1.444476045410E+01  1.417120151287E+01  1.389604530503E+01
  1.361940912931E+01  1.334141567406E+01  1.306219302464E+01  1.278187465669E+01
  1.250059941404E+01  1.221851147050E+01  1.193576027433E+01  1.165250047465E+01
  1.136889182845E+01  1.108509908761E+01  1.080129186457E+01  1.051764447613E+01
  1.023433576406E+01  9.951548892039E+00  9.669471117831E+00  9.388293540179E+00
  9.108210819597E+00  8.829420872580E+00  8.552124538727E+00  8.276525220412E+00
  8.002828494773E+00  7.731241697928E+00  7.461973481456E+00  7.195233341389E+00
  6.931231120106E+00  6.670176481734E+00  6.412278361872E+00  6.157744392669E+00
  5.906780304537E+00  5.659589306006E+00  5.416371443530E+00  5.177322943273E+00
  4.942635537234E+00  4.712495776318E+00  4.487084333273E+00  4.266575298701E+00
  4.051135473658E+00  3.840923662613E+00  3.636089970870E+00  3.436775110788E+00
  3.243109721419E+00  3.055213706413E+00  2.873195595258E+00  2.697151933118E+00
  2.527166704671E+00  2.363310797491E+00  2.205641510564E+00  2.054202113563E+00
  1.909021462482E+00  1.770113677120E+00  1.637477885761E+00  1.511098042160E+00
  1.390942819652E+00  1.276965586806E+00  1.169104468610E+00  1.067282496601E+00
  9.714078507472E-01  8.813741951856E-01  7.970611090984E-01  7.183346131802E-01
  6.450477911818E-01  5.770415050188E-01  5.141452008678E-01  4.561778025603E-01
  4.029486874404E-01  3.542587386876E-01  3.099014669359E-01  2.696641928734E-01
  2.333292813849E-01  2.006754167474E-01  1.714789074075E-01  1.455150079976E-01
  1.225592455051E-01  1.023887359155E-01  8.478347723542E-02  6.952760458377E-02
  5.641059304169E-02  4.522839418468E-02  3.578449270740E-02  2.789087029302E-02
  2.136886488410E-02  1.604991477768E-02  1.177617848536E-02  8.401023055119E-03
  5.789375523275E-03  3.817934322519E-03  2.375239778064E-03  1.361605235001E-03
  6.889128245053E-04  2.802803383976E-04  6.960807958379E-05  1.016825886838E-06
  2.819012134652E-05  1.136359275037E-04  2.278841658527E-04  3.486378053511E-04
  4.598958473868E-04  5.510667971652E-04  6.160909601463E-04  6.525891549233E-04
  6.610541964336E-04  6.440998000866E-04  6.057794311499E-04  5.509851355459E-04
  4.849336161674E-04  4.127438560574E-04  3.391075416282E-04  2.680505191169E-04
  2.027806429999E-04  1.456147618353E-04  9.797534338656E-05  6.044546217360E-05
  3.286963522244E-05  1.448734816307E-05  4.086088169850E-06  1.612855809869E-07
  1.071722945223E-06  5.180627409969E-06  1.097471925610E-05  1.715582102866E-05
  2.270209547128E-05  2.689842453448E-05  2.933771487136E-05  2.989687723070E-05
  2.869275908522E-05  2.602432345022E-05  2.230781217196E-05  1.801150224754E-05
  1.359599716520E-05  9.464872923094E-06  5.929038408303E-06  3.186517772151E-06
  1.317678751955E-06  2.943761710330E-07  1.994525206162E-10  2.581223730472E-07
  8.614258122798E-07  1.603822893354E-06  2.305230153624E-06  2.830517099849E-06
  3.099706790378E-06  3.089341542360E-06  2.825910789179E-06  2.373213643244E-06
  1.816178274509E-06  1.243911622054E-06  7.345907182002E-07  3.442747670123E-07
  1.009120414950E-07  3.873564199501E-09  0.000000000000E+00  0.000000000000E+00
  0.000000000000E+00  0.000000000000E+00  0.000000000000E+00  0.000000000000E+00
  0.000000000000E+00  0.000000000000E+00  0.000000000000E+00  0.000000000000E+00
  0.000000000000E+00  0.000000000000E+00  0.000000000000E+00  0.000000000000E+00
  0.000000000000E+00  0.000000000000E+00  0.000000000000E+00  0.000000000000E+00
  0.000000000000E+00  0.000000000000E+00  0.000000000000E+00  0.000000000000E+00
  0.000000000000E+00  0.000000000000E+00  0.000000000000E+00  0.000000000000E+00
  0.000000000000E+00  0.000000000000E+00  0.000000000000E+00  0.000000000000E+00
  0.000000000000E+00  0.000000000000E+00  0.000000000000E+00  0.000000000000E+00
  0.000000000000E+00  0.000000000000E+00  0.000000000000E+00  0.000000000000E+00
  0.000000000000E+00  0.000000000000E+00
</data>
</radfunc>
</pseudocore-charge>
<semilocal-potentials set="scalar_relativistic">
<slps n="4" l="s" rc="1.51546923352" eref="-1.50210909243">
<radfunc>
<data npts="290">
  8.466862032298E+01  8.458995888518E+01  8.434798898646E+01  8.394994582509E+01
  8.340162271007E+01  8.268950774655E+01  8.179622698761E+01  8.079252224646E+01
  7.968769390919E+01  7.842995249339E+01  7.705035227929E+01  7.559469804921E+01
  7.389360120725E+01  7.218145868143E+01  7.024161904963E+01  6.838549844277E+01
  6.634218921709E+01  6.449228501032E+01  6.250682910444E+01  6.038605865556E+01
  5.813230156993E+01  5.623658263769E+01  5.426218915521E+01  5.221368309331E+01
  5.009668126033E+01  4.791783432206E+01  4.568477617400E+01  4.397951048590E+01
  4.225243567306E+01  4.050767015925E+01  3.874951489326E+01  3.698241311448E+01
  3.521090713395E+01  3.343959301217E+01  3.167307409090E+01  2.991591437764E+01
  2.817259278633E+01  2.644745920558E+01  2.530954680187E+01  2.418276839132E+01
  2.306826683783E+01  2.196713524596E+01  2.088041328691E+01  1.980908397723E+01
  1.875407092478E+01  1.771623605041E+01  1.669637778743E+01  1.569522975561E+01
  1.471345990061E+01  1.375167008560E+01  1.281039611669E+01  1.189010818077E+01
  1.099121167091E+01  1.011404837218E+01  9.258897978934E+00  8.425979913522E+00
  7.615455415890E+00  6.827429873547E+00  6.061955362050E+00  5.319033367219E+00
  4.598617661819E+00  3.900617311304E+00  3.224899785362E+00  2.571294154394E+00
  1.939594352499E+00  1.329562491126E+00  7.409322100633E-01  4.545524701203E-01
  1.734120548208E-01 -1.025288316079E-01 -3.733111283131E-01 -6.389768112172E-01
 -8.995687863679E-01 -1.155130783272E+00 -1.405707248237E+00 -1.651343237756E+00
 -1.892084311956E+00 -2.127976428151E+00 -2.359065834534E+00 -2.585398964039E+00
 -2.807022328444E+00 -3.023982412748E+00 -3.236325569911E+00 -3.444097916033E+00
 -3.647345226078E+00 -3.846112830239E+00 -4.040445511114E+00 -4.230387401826E+00
 -4.415981885273E+00 -4.597271494735E+00 -4.774297816062E+00 -4.947101391711E+00
 -5.115721626956E+00 -5.280196698582E+00 -5.440563466462E+00 -5.596857388420E+00
 -5.749112438838E+00 -5.897361031498E+00 -6.041633947215E+00 -6.181960266823E+00
 -6.318367310150E+00 -6.450880581654E+00 -6.579523723432E+00 -6.704318476363E+00
 -6.825284650167E+00 -6.942440103241E+00 -7.055800733127E+00 -7.165380478528E+00
 -7.271191333808E+00 -7.373243376922E+00 -7.471544811771E+00 -7.566102025933E+00
 -7.656919664774E+00 -7.744000722871E+00 -7.827346653685E+00 -7.906957498352E+00
 -7.982832034383E+00 -8.054967944984E+00 -8.123362009542E+00 -8.188010315708E+00
 -8.248908493256E+00 -8.306051969703E+00 -8.359436247339E+00 -8.409057201021E+00
 -8.454911395663E+00 -8.496996421912E+00 -8.535311248005E+00 -8.569856585234E+00
 -8.600635263812E+00 -8.627652615272E+00 -8.650916856807E+00 -8.670439472159E+00
 -8.686235582881E+00 -8.698324302944E+00 -8.706729068793E+00 -8.711477936107E+00
 -8.712603833675E+00 -8.710144763963E+00 -8.704143939221E+00 -8.694649841297E+00
 -8.681716192767E+00 -8.665401826602E+00 -8.645770441407E+00 -8.622890229282E+00
 -8.596833363736E+00 -8.567675335786E+00 -8.535494127517E+00 -8.500369214014E+00
 -8.462380386801E+00 -8.421606394796E+00 -8.378123402364E+00 -8.332003268437E+00
 -8.283311655914E+00 -8.232105986649E+00 -8.178433264403E+00 -8.122327796049E+00